# Probe 0 (0.05 0.05 0)
#       Probe             0 
#        Time
