# Probe 0 (0.05 0.05 0)
# Probe 1 (0.2 0 0)
# Probe 2 (0.2 0.05 0)
# Probe 3 (0.2 -0.05 0)
#       Probe             0             1             2             3
#        Time
