/*--------------------------------*- C++ -*----------------------------------*\
| =========                 |                                                 |
| \\      /  F ield         | OpenFOAM: The Open Source CFD Toolbox           |
|  \\    /   O peration     | Version:  4.1                                   |
|   \\  /    A nd           | Web:      www.OpenFOAM.org                      |
|    \\/     M anipulation  |                                                 |
\*---------------------------------------------------------------------------*/
FoamFile
{
    version     2.0;
    format      ascii;
    class       volScalarField;
    location    "0";
    object      alpha;
}
// * * * * * * * * * * * * * * * * * * * * * * * * * * * * * * * * * * * * * //

dimensions      [0 2 -1 0 0 0 0];

internalField   nonuniform List<scalar> 
64
(
1.01583
1.02409
1.0317
1.02172
1.02631
1.01504
1.01875
1.03481
1.03001
1.02233
1.02202
1.02647
1.01765
1.01628
1.03402
1.01807
1.07669
1.06933
1.08113
1.06781
1.07744
1.06922
1.06513
1.07647
1.08365
1.07181
1.08282
1.07688
1.07286
1.08299
1.0789
1.06957
1.13425
1.11524
1.11722
1.13268
1.11734
1.13002
1.12094
1.12793
1.12353
1.12502
1.12129
1.12374
1.1282
1.12905
1.1305
1.13127
1.1714
1.18465
1.17859
1.16802
1.18252
1.17894
1.17255
1.1763
1.1745
1.17045
1.18379
1.17018
1.1758
1.17796
1.1764
1.17519
)
;

boundaryField
{
    defaultFaces
    {
        type            empty;
    }
}


// ************************************************************************* //
