/*--------------------------------*- C++ -*----------------------------------*\
| =========                 |                                                 |
| \\      /  F ield         | OpenFOAM: The Open Source CFD Toolbox           |
|  \\    /   O peration     | Version:  4.1                                   |
|   \\  /    A nd           | Web:      www.OpenFOAM.org                      |
|    \\/     M anipulation  |                                                 |
\*---------------------------------------------------------------------------*/
FoamFile
{
    version     2.0;
    format      ascii;
    class       volScalarField;
    location    "0";
    object      ccx;
}
// * * * * * * * * * * * * * * * * * * * * * * * * * * * * * * * * * * * * * //

dimensions      [0 1 0 0 0 0 0];

internalField   nonuniform List<scalar> 
64
(
0.125
0.375
0.625
0.875
0.125
0.375
0.625
0.875
0.125
0.375
0.625
0.875
0.125
0.375
0.625
0.875
0.125
0.375
0.625
0.875
0.125
0.375
0.625
0.875
0.125
0.375
0.625
0.875
0.125
0.375
0.625
0.875
0.125
0.375
0.625
0.875
0.125
0.375
0.625
0.875
0.125
0.375
0.625
0.875
0.125
0.375
0.625
0.875
0.125
0.375
0.625
0.875
0.125
0.375
0.625
0.875
0.125
0.375
0.625
0.875
0.125
0.375
0.625
0.875
)
;

boundaryField
{
    defaultFaces
    {
        type            empty;
    }
}


// ************************************************************************* //
