/*--------------------------------*- C++ -*----------------------------------*\
| =========                 |                                                 |
| \\      /  F ield         | OpenFOAM: The Open Source CFD Toolbox           |
|  \\    /   O peration     | Version:  2.4.0                                 |
|   \\  /    A nd           | Web:      www.OpenFOAM.org                      |
|    \\/     M anipulation  |                                                 |
\*---------------------------------------------------------------------------*/
FoamFile
{
    version     2.0;
    format      ascii;
    class       volSymmTensorField;
    location    "0";
    object      sigma;
}
// * * * * * * * * * * * * * * * * * * * * * * * * * * * * * * * * * * * * * //

dimensions      [0 0 -1 0 0 0 0];

internalField   nonuniform List<symmTensor> 
64
(
(0 0.00274009 0 0.00339211 0 0)
(0 0.000857935 0 -0.00364744 0 0)
(0 0.000796865 0 0.000304437 0 0)
(0 0.000741943 0 -2.74898e-05 0 0)
(0 0.000688069 0 -3.28479e-06 0 0)
(0 0.000632019 0 -6.35745e-06 0 0)
(0 0.000578346 0 -7.37002e-06 0 0)
(0 0.000521144 0 1.43867e-05 0 0)
(0 0.000470824 0 0.000476158 0 0)
(0 0.00041362 0 0.00555358 0 0)
(0 0.00149645 0 0.0951143 0 0)
(-6.43767e-18 0.438087 0 0.613165 0 0)
(0 10.3927 0 -0.339075 0 0)
(1.28695e-14 17.5453 0 -0.391102 0 0)
(0 11.3546 0 0.0406573 0 0)
(2.51242e-14 5.4327 0 -0.0240452 0 0)
(0 2.32967 0 0.0249139 0 0)
(4.90485e-14 0.900286 0 -0.0226804 0 0)
(0 0.31718 0 0.0211446 0 0)
(0 0.104328 0 -0.0196464 0 0)
(0 0.033534 0 0.0182855 0 0)
(0 0.0114202 0 -0.0170313 0 0)
(-9.23445e-14 0.00461489 0 0.0158757 0 0)
(0 0.00241568 0 -0.0148078 0 0)
(0 0.00162373 0 0.0138187 0 0)
(0 0.00129651 0 -0.0129004 0 0)
(0 0.0011404 0 0.0120465 0 0)
(-4.34647e-14 0.00105346 0 -0.0112513 0 0)
(0 0.000996243 0 0.0105101 0 0)
(4.24267e-14 0.000952417 0 -0.00981859 0 0)
(0 0.000914993 0 0.00917306 0 0)
(0 0.000880954 0 -0.00857 0 0)
(0 0.000848989 0 0.00800623 0 0)
(0 0.00081852 0 -0.00747876 0 0)
(0 0.000789282 0 0.00698485 0 0)
(0 0.000761144 0 -0.00652193 0 0)
(0 0.000734032 0 0.00608762 0 0)
(0 0.000707894 0 -0.00567974 0 0)
(-3.80539e-14 0.000682691 0 0.00529628 0 0)
(0 0.000658386 0 -0.00493537 0 0)
(0 0.000634947 0 0.0045953 0 0)
(0 0.000612342 0 -0.00427451 0 0)
(0 0.000590542 0 0.00397154 0 0)
(0 0.000569518 0 -0.00368506 0 0)
(3.53921e-14 0.000549242 0 0.00341383 0 0)
(0 0.000529688 0 -0.00315674 0 0)
(-3.45469e-14 0.00051083 0 0.00291272 0 0)
(0 0.000492644 0 -0.00268082 0 0)
(0 0.000475104 0 0.00246015 0 0)
(0 0.00045819 0 -0.00224989 0 0)
(0 0.000441878 0 0.00204927 0 0)
(6.50421e-14 0.000426145 0 -0.00185759 0 0)
(0 0.000410973 0 0.0016742 0 0)
(0 0.000396342 0 -0.00149851 0 0)
(0 0.00038223 0 0.00132996 0 0)
(0 0.000368613 0 -0.00116804 0 0)
(0 0.000355424 0 0.00101226 0 0)
(0 0.000342323 0 -0.000862194 0 0)
(0 0.000327428 0 0.00071743 0 0)
(0 0.000301844 0 -0.000577592 0 0)
(0 0.000233012 0 0.000442331 0 0)
(0 4.19921e-05 0 -0.000311324 0 0)
(0 -0.000336979 0 0.000184272 0 0)
(0 -0.000288236 0 -6.06668e-05 0 0)
)
;

boundaryField
{
    inlet
    {
        type            cyclic;
    }
    outlet
    {
        type            cyclic;
    }
    top
    {
        type            calculated;
        value           uniform (0 0 0 0.131612 0 0);
    }
    bottom
    {
        type            calculated;
        value           uniform (0 0.00458283 0 0.0147424 0 0);
    }
    frontAndBackPlanes
    {
        type            empty;
    }
}


// ************************************************************************* //
