/*--------------------------------*- C++ -*----------------------------------*\
| =========                 |                                                 |
| \\      /  F ield         | OpenFOAM: The Open Source CFD Toolbox           |
|  \\    /   O peration     | Version:  2.4.0                                 |
|   \\  /    A nd           | Web:      www.OpenFOAM.org                      |
|    \\/     M anipulation  |                                                 |
\*---------------------------------------------------------------------------*/
FoamFile
{
    version     2.0;
    format      ascii;
    class       volTensorField;
    location    "0";
    object      Taus;
}
// * * * * * * * * * * * * * * * * * * * * * * * * * * * * * * * * * * * * * //

dimensions      [0 2 -2 0 0 0 0];

internalField   nonuniform List<tensor> 
64
(
(0 0.000161259 0 0.000161259 1.59871e-06 0 0 0 0)
(0 0.000151773 0 0.000151773 -7.60031e-07 0 0 0 0)
(0 0.000142015 0 0.000142015 5.19395e-07 0 0 0 0)
(0 0.000132303 0 0.000132303 7.52474e-07 0 0 0 0)
(0 0.000122323 0 0.000122323 4.64674e-07 0 0 0 0)
(6.23057e-19 0.000112401 0 0.000112401 1.25559e-06 0 0 0 0)
(0 0.000102187 0 0.000102187 7.56639e-07 0 0 0 0)
(6.09526e-19 9.20591e-05 0 9.20591e-05 2.59193e-06 0 0 0 0)
(0 8.15823e-05 0 8.15823e-05 -6.93204e-07 0 0 0 0)
(0 7.16885e-05 0 7.16885e-05 2.46028e-05 0 0 0 0)
(0 6.92191e-05 0 6.92191e-05 -8.11203e-05 0 0 0 0)
(-1.12626e-21 2.56021e-05 0 2.56021e-05 0.000215699 0 0 0 0)
(0 1.09534e-05 0 1.09534e-05 -3.10515e-06 0 0 0 0)
(1.28755e-20 1.8244e-05 0 1.8244e-05 -8.16569e-06 0 0 0 0)
(0 1.12568e-05 0 1.12568e-05 -1.52916e-05 0 0 0 0)
(5.02485e-20 5.13006e-06 0 5.13006e-06 -1.14036e-05 0 0 0 0)
(0 2.22134e-06 0 2.22134e-06 -1.00959e-07 0 0 0 0)
(4.90485e-20 8.14648e-07 0 8.14648e-07 -3.68733e-09 0 0 0 0)
(-4.84592e-20 2.84351e-07 0 2.84351e-07 5.88712e-09 0 0 0 0)
(0 9.289e-08 0 9.289e-08 -5.50164e-09 0 0 0 0)
(-4.73019e-20 3.08697e-08 0 3.08697e-08 3.83512e-09 0 0 0 0)
(-4.67337e-20 1.08132e-08 0 1.08132e-08 -3.09865e-09 0 0 0 0)
(0 4.42474e-09 0 4.42474e-09 2.91623e-09 0 0 0 0)
(0 2.34869e-09 0 2.34869e-09 -2.70221e-09 0 0 0 0)
(0 1.60011e-09 0 1.60011e-09 2.54354e-09 0 0 0 0)
(0 1.28563e-09 0 1.28563e-09 -2.36079e-09 0 0 0 0)
(0 1.13758e-09 0 1.13758e-09 2.22213e-09 0 0 0 0)
(-4.34647e-20 1.05117e-09 0 1.05117e-09 -2.06482e-09 0 0 0 0)
(0 9.96898e-10 0 9.96898e-10 1.94298e-09 0 0 0 0)
(4.24267e-20 9.51831e-10 0 9.51831e-10 -1.80681e-09 0 0 0 0)
(0 9.16264e-10 0 9.16264e-10 1.69941e-09 0 0 0 0)
(0 8.80833e-10 0 8.80833e-10 -1.58109e-09 0 0 0 0)
(0 8.50363e-10 0 8.50363e-10 1.48621e-09 0 0 0 0)
(0 8.1862e-10 0 8.1862e-10 -1.38305e-09 0 0 0 0)
(0 7.90666e-10 0 7.90666e-10 1.29902e-09 0 0 0 0)
(0 7.61403e-10 0 7.61403e-10 -1.20873e-09 0 0 0 0)
(0 7.35407e-10 0 7.35407e-10 1.13407e-09 0 0 0 0)
(0 7.08285e-10 0 7.08285e-10 -1.05471e-09 0 0 0 0)
(0 6.84052e-10 0 6.84052e-10 9.88128e-10 0 0 0 0)
(0 6.58887e-10 0 6.58887e-10 -9.18038e-10 0 0 0 0)
(0 6.3629e-10 0 6.3629e-10 8.58413e-10 0 0 0 0)
(0 6.12936e-10 0 6.12936e-10 -7.96215e-10 0 0 0 0)
(0 5.91863e-10 0 5.91863e-10 7.42574e-10 0 0 0 0)
(0 5.7019e-10 0 5.7019e-10 -6.87102e-10 0 0 0 0)
(7.07842e-20 5.50539e-10 0 5.50539e-10 6.38612e-10 0 0 0 0)
(0 5.30425e-10 0 5.30425e-10 -5.88882e-10 0 0 0 0)
(-3.45469e-20 5.12099e-10 0 5.12099e-10 5.44826e-10 0 0 0 0)
(0 4.93434e-10 0 4.93434e-10 -5.00009e-10 0 0 0 0)
(0 4.76344e-10 0 4.76344e-10 4.59769e-10 0 0 0 0)
(0 4.59024e-10 0 4.59024e-10 -4.19161e-10 0 0 0 0)
(0 4.43084e-10 0 4.43084e-10 3.82202e-10 0 0 0 0)
(9.75631e-20 4.27015e-10 0 4.27015e-10 -3.45208e-10 0 0 0 0)
(0 4.12146e-10 0 4.12146e-10 3.11069e-10 0 0 0 0)
(0 3.97239e-10 0 3.97239e-10 -2.77184e-10 0 0 0 0)
(0 3.83366e-10 0 3.83366e-10 2.45463e-10 0 0 0 0)
(0 3.69527e-10 0 3.69527e-10 -2.14258e-10 0 0 0 0)
(0 3.56486e-10 0 3.56486e-10 1.84611e-10 0 0 0 0)
(0 3.43054e-10 0 3.43054e-10 -1.55681e-10 0 0 0 0)
(0 3.27602e-10 0 3.27602e-10 1.28567e-10 0 0 0 0)
(0 3.00983e-10 0 3.00983e-10 -8.67738e-11 0 0 0 0)
(0 2.59057e-10 0 2.59057e-10 3.53868e-10 0 0 0 0)
(0 9.41566e-11 0 9.41566e-11 3.24786e-09 0 0 0 0)
(0 -2.93776e-10 0 -2.93776e-10 6.7847e-08 0 0 0 0)
(0 -2.76634e-10 0 -2.76634e-10 2.02593e-05 0 0 0 0)
)
;

boundaryField
{
    inlet
    {
        type            cyclic;
    }
    outlet
    {
        type            cyclic;
    }
    top
    {
        type            zeroGradient;
    }
    bottom
    {
        type            zeroGradient;
    }
    frontAndBackPlanes
    {
        type            empty;
    }
}


// ************************************************************************* //
