/*--------------------------------*- C++ -*----------------------------------*\
| =========                 |                                                 |
| \\      /  F ield         | OpenFOAM: The Open Source CFD Toolbox           |
|  \\    /   O peration     | Version:  4.1                                   |
|   \\  /    A nd           | Web:      www.OpenFOAM.org                      |
|    \\/     M anipulation  |                                                 |
\*---------------------------------------------------------------------------*/
FoamFile
{
    version     2.0;
    format      ascii;
    class       volVectorField;
    location    "0";
    object      U;
}
// * * * * * * * * * * * * * * * * * * * * * * * * * * * * * * * * * * * * * //

dimensions      [0 1 -1 0 0 0 0];

internalField   nonuniform List<vector> 
64
(
(-0.916739 0.108239 0.116565)
(-0.0910151 1.18168 1.27258)
(0.669634 2.17052 2.33749)
(-0.328028 0.873564 0.940761)
(0.130979 1.47027 1.58337)
(-0.996466 0.00459397 0.00494735)
(-0.624821 0.487733 0.525251)
(0.980868 2.57513 2.77322)
(0.500994 1.95129 2.10139)
(-0.267453 0.952311 1.02557)
(-0.297582 0.913144 0.983385)
(0.14669 1.4907 1.60537)
(-0.734892 0.344641 0.371152)
(-0.871667 0.166833 0.179666)
(0.901707 2.47222 2.66239)
(-0.69288 0.399256 0.429968)
(0.169299 1.52009 1.63702)
(-0.566824 0.563129 0.606447)
(0.613003 2.0969 2.2582)
(-0.719054 0.36523 0.393324)
(0.244118 1.61735 1.74176)
(-0.578214 0.548321 0.5905)
(-0.986844 0.0171025 0.0184181)
(0.146597 1.49058 1.60524)
(0.865328 2.42493 2.61146)
(-0.319347 0.884849 0.952914)
(0.782161 2.31681 2.49503)
(0.187745 1.54407 1.66284)
(-0.214207 1.02153 1.10011)
(0.798647 2.33824 2.51811)
(0.389988 1.80698 1.94598)
(-0.542795 0.594367 0.640088)
(0.924919 2.50239 2.69489)
(-0.975892 0.0313399 0.0337506)
(-0.778085 0.288489 0.31068)
(0.768193 2.29865 2.47547)
(-0.766488 0.303565 0.326916)
(0.501845 1.9524 2.10258)
(-0.406133 0.772027 0.831414)
(0.293383 1.6814 1.81074)
(-0.14684 1.10911 1.19442)
(0.00188202 1.30245 1.40263)
(-0.370846 0.817901 0.880816)
(-0.126431 1.13564 1.223)
(0.320071 1.71609 1.8481)
(0.405091 1.82662 1.96713)
(0.549618 2.0145 2.16947)
(0.626533 2.11449 2.27715)
(-0.36037 0.831519 0.895483)
(0.964653 2.55405 2.75051)
(0.359265 1.76705 1.90297)
(-0.69805 0.392534 0.422729)
(0.752054 2.27767 2.45288)
(0.393517 1.81157 1.95092)
(-0.245268 0.981151 1.05662)
(0.12967 1.46857 1.58154)
(-0.0500156 1.23498 1.32998)
(-0.455018 0.708476 0.762975)
(0.878656 2.44225 2.63012)
(-0.481879 0.673557 0.725369)
(0.0803679 1.40448 1.51252)
(0.295559 1.68423 1.81378)
(0.139551 1.48142 1.59537)
(0.0191306 1.32487 1.42678)
)
;

boundaryField
{
    defaultFaces
    {
        type            empty;
    }
    outlet
    {
        type            inletOutlet;
        inletValue      uniform (0 0 0);
        value           nonuniform List<vector>
5
(
(0.1 0.3 0.2)
(0.1 0.3 0.2)
(0.1 0.3 0.2)
(0.1 0.3 0.2)
(0.1 0.3 0.2)
);
    }
}


// ************************************************************************* //
