# Probe 0 (0.05 0.05 0)
#       Probe             0 
#        Time
      92.0002             0.0346514 
      92.0004             0.0346515 
      92.0006             0.0346516
      92.0008             0.0346514 
      92.001              0.0446515 
      92.0012             0.0546516
      92.0014             0.0446514 
      92.0016             0.0246515 
      92.0018             0.0146516
      92.002              0.0134652
