# Probe 0 (0.05 0.05 0)
# Probe 1 (0.2 0 0)
# Probe 2 (0.2 0.05 0)
# Probe 3 (0.2 -0.05 0)
#       Probe             0             1             2             3
#        Time
      92.0002             (0.00301986 0.0346514 2.6539e-28)             (0.209107 -0.211087 -1.25263e-31)             (0.232681 -0.159091 -3.09186e-25)             (0.16146 -0.139631 -3.60082e-25)
      92.0004             (0.002946 0.0346598 2.6568e-28)             (0.209123 -0.2111 -1.25171e-31)             (0.232738 -0.159089 -3.09193e-25)             (0.161412 -0.139638 -3.60308e-25)
      92.0006             (0.00287226 0.0346681 2.6588e-28)             (0.209138 -0.211114 -1.25026e-31)             (0.232794 -0.159088 -3.09218e-25)             (0.161365 -0.139646 -3.6067e-25)
      92.0008             (0.00279864 0.0346764 2.66055e-28)             (0.209153 -0.211128 -1.24962e-31)             (0.23285 -0.159086 -3.09182e-25)             (0.161318 -0.139653 -3.60772e-25)
       92.001             (0.00272514 0.0346847 2.6636e-28)             (0.209168 -0.211141 -1.24874e-31)             (0.232907 -0.159084 -3.09197e-25)             (0.16127 -0.13966 -3.60967e-25)
      92.0012             (0.00265175 0.0346929 2.66665e-28)             (0.209184 -0.211155 -1.2473e-31)             (0.232963 -0.159083 -3.09224e-25)             (0.161223 -0.139668 -3.61309e-25)
      92.0014             (0.00257847 0.034701 2.66934e-28)             (0.209199 -0.211169 -1.2467e-31)             (0.23302 -0.159081 -3.09192e-25)             (0.161175 -0.139675 -3.61437e-25)
      92.0016             (0.00250531 0.0347091 2.67189e-28)             (0.209214 -0.211182 -1.2453e-31)             (0.233076 -0.15908 -3.09222e-25)             (0.161128 -0.139682 -3.61836e-25)
      92.0018             (0.00243228 0.0347172 2.67394e-28)             (0.20923 -0.211196 -1.24476e-31)             (0.233133 -0.159078 -3.09173e-25)             (0.16108 -0.13969 -3.6192e-25)
       92.002             (0.00235935 0.0347253 2.67643e-28)             (0.209245 -0.21121 -1.24354e-31)             (0.233189 -0.159076 -3.09198e-25)             (0.161032 -0.139697 -3.62194e-25)
