/*--------------------------------*- C++ -*----------------------------------*\
| =========                 |                                                 |
| \\      /  F ield         | OpenFOAM: The Open Source CFD Toolbox           |
|  \\    /   O peration     | Version:  5.0                                   |
|   \\  /    A nd           | Web:      www.OpenFOAM.org                      |
|    \\/     M anipulation  |                                                 |
\*---------------------------------------------------------------------------*/
FoamFile
{
    version     2.0;
    format      ascii;
    class       volScalarField;
    location    "0";
    object      k;
}
// * * * * * * * * * * * * * * * * * * * * * * * * * * * * * * * * * * * * * //

dimensions      [0 2 -2 0 0 0 0];

internalField   nonuniform List<scalar> 
7200
(
1.56496e-05
1.66653e-05
2.23635e-05
2.50688e-05
2.51273e-05
3.80306e-05
6.28448e-05
6.20121e-05
4.79043e-05
3.94146e-05
3.35526e-05
3.38568e-05
2.71966e-05
1.96381e-05
2.91949e-05
4.94464e-05
4.8489e-05
4.28564e-05
5.48679e-05
7.37475e-05
1.8693e-05
2.04454e-05
2.60185e-05
2.77307e-05
2.52083e-05
3.11067e-05
5.60876e-05
5.73469e-05
4.69924e-05
3.76458e-05
3.51441e-05
3.46483e-05
3.25307e-05
1.78688e-05
1.65063e-05
2.49828e-05
2.67017e-05
2.27231e-05
3.05667e-05
4.57361e-05
1.67884e-05
1.85791e-05
2.43015e-05
1.741e-05
1.47076e-05
1.48031e-05
2.34936e-05
2.57534e-05
2.98682e-05
2.32692e-05
1.982e-05
1.84176e-05
2.32806e-05
2.31809e-05
1.30075e-05
7.14519e-06
7.72782e-06
1.07478e-05
7.49418e-06
4.14333e-06
2.40097e-05
2.05753e-05
3.16642e-05
1.65588e-05
8.02394e-06
6.34007e-06
1.53905e-05
1.26301e-05
9.2236e-06
7.84703e-06
8.89943e-06
1.31967e-05
5.93195e-06
6.0711e-06
9.79164e-06
9.09776e-06
8.62672e-06
8.21256e-06
6.17909e-06
2.87339e-06
4.41259e-05
2.41292e-05
3.017e-05
1.52286e-05
7.21135e-06
6.9233e-06
2.57203e-05
1.06115e-05
1.00992e-05
8.43236e-06
4.76256e-06
7.33719e-06
6.85417e-06
4.91087e-06
7.19786e-06
6.6729e-06
9.85185e-06
9.69719e-06
5.95187e-06
3.70143e-06
2.7839e-05
3.04333e-05
1.91694e-05
1.71226e-05
1.11194e-05
9.30792e-06
1.33085e-05
1.6348e-05
5.65817e-06
1.03864e-05
7.44384e-06
1.0196e-05
7.90558e-06
3.76516e-06
3.66086e-06
5.67092e-06
8.79999e-06
4.66375e-06
3.5481e-06
7.46132e-06
2.59726e-05
2.24755e-05
1.32143e-05
1.04516e-05
1.5237e-05
8.24502e-06
7.42395e-06
1.58821e-05
1.41439e-05
7.53463e-06
1.13487e-05
1.29647e-05
9.46811e-06
9.27504e-06
6.10066e-06
4.48716e-06
3.50816e-06
3.07072e-06
2.93329e-06
5.01356e-06
8.06305e-06
7.88171e-06
1.51933e-05
1.86535e-05
1.658e-05
1.79298e-05
1.7619e-05
1.07799e-05
1.32141e-05
1.67097e-05
1.34978e-05
3.04982e-05
3.02845e-05
1.3326e-05
7.01062e-06
1.02227e-05
5.87016e-06
4.1404e-06
4.87029e-06
1.07705e-05
7.62383e-06
1.98287e-06
1.59051e-06
1.98918e-05
3.14512e-05
2.86484e-05
2.00086e-05
8.02492e-06
9.49389e-06
9.17374e-06
4.67393e-06
1.02278e-05
1.74627e-05
1.37868e-05
8.56288e-06
1.06585e-05
9.14097e-06
9.25934e-06
7.93135e-06
6.06217e-06
3.04273e-06
1.7238e-06
1.02597e-06
2.97085e-06
4.03585e-06
3.18081e-06
1.54175e-06
1.7606e-06
2.0384e-06
1.99003e-06
4.05781e-06
5.03218e-06
2.90521e-06
5.43007e-06
1.06674e-05
1.50021e-05
6.85505e-06
4.86256e-06
4.05894e-06
2.60117e-06
2.71859e-06
1.60193e-06
1.80421e-06
1.36922e-06
1.36272e-06
1.68657e-06
1.82115e-06
2.81674e-06
3.14772e-06
2.47968e-06
1.34268e-06
1.50719e-06
8.25016e-07
1.61854e-06
2.76445e-06
2.6509e-06
2.8819e-06
1.32529e-06
1.95406e-06
2.02509e-06
3.13266e-06
2.6705e-06
2.136e-06
1.6479e-06
1.59256e-06
2.1128e-06
2.73018e-06
2.67355e-06
9.74984e-07
1.25445e-06
1.07218e-06
7.96094e-07
8.79659e-07
1.04778e-06
1.54749e-06
1.73149e-06
2.62545e-06
2.02481e-06
1.26557e-06
9.61293e-07
9.68347e-05
9.90412e-05
5.414e-05
3.33041e-05
3.10633e-05
3.71199e-05
4.59434e-05
3.67541e-05
3.11825e-05
3.25732e-05
4.15426e-05
4.7768e-05
3.63766e-05
2.88426e-05
3.20054e-05
4.7362e-05
5.22221e-05
5.97226e-05
6.7104e-05
7.30119e-05
8.14283e-05
0.00010106
5.07673e-05
2.74816e-05
2.22253e-05
2.4737e-05
3.46716e-05
3.70748e-05
2.07959e-05
2.24443e-05
3.98214e-05
4.81516e-05
5.76763e-05
4.38228e-05
2.39437e-05
3.23485e-05
2.22983e-05
2.16905e-05
3.08278e-05
6.07915e-05
5.19609e-05
8.21401e-05
4.1328e-05
1.79547e-05
1.10547e-05
8.01173e-06
1.10651e-05
1.69328e-05
1.50342e-05
1.92125e-05
1.71279e-05
1.6865e-05
2.06496e-05
3.58094e-05
4.38386e-05
1.19381e-05
1.75857e-05
1.32372e-05
9.15131e-06
6.85428e-06
1.86457e-05
2.72469e-05
2.59082e-05
1.42552e-05
1.51741e-05
5.69382e-06
7.98818e-06
3.86033e-06
3.41309e-06
5.79211e-06
9.07616e-06
1.09907e-05
1.0087e-05
2.64916e-06
5.8077e-06
1.48488e-05
1.43168e-05
1.00102e-05
5.70762e-06
5.94591e-06
1.89862e-05
1.26577e-05
2.25024e-05
1.33932e-05
1.23968e-05
1.39318e-05
1.1267e-05
7.08251e-06
3.63448e-06
3.80261e-06
7.67483e-06
9.30182e-06
1.08231e-05
4.37984e-06
3.34329e-06
6.31063e-06
8.33751e-06
1.14088e-05
5.95183e-06
1.28254e-05
1.06083e-05
8.61232e-06
9.28988e-06
1.21824e-05
1.16539e-05
1.96268e-05
1.61029e-05
1.8727e-05
1.22044e-05
1.08637e-05
6.03137e-06
2.41377e-05
1.90033e-05
8.39456e-06
6.47762e-06
8.36394e-06
1.06526e-05
2.99627e-06
4.58613e-06
5.06341e-06
9.35215e-06
7.88769e-06
9.27717e-06
1.14725e-05
1.32332e-05
2.69314e-05
8.74173e-06
8.62419e-06
7.45356e-06
8.47081e-06
1.4657e-05
2.1428e-05
6.43468e-06
1.27642e-05
9.11844e-06
9.26395e-06
1.38018e-05
9.58063e-06
4.61568e-06
7.23106e-06
7.3436e-06
5.62953e-06
4.99277e-06
1.40077e-05
2.37342e-05
1.83414e-05
1.09461e-05
1.28216e-05
1.53965e-05
9.87944e-06
9.26093e-06
1.62971e-05
1.05842e-05
4.80274e-06
5.13331e-06
9.2729e-06
1.92083e-05
6.49622e-06
6.04149e-06
6.5693e-06
5.89471e-06
2.85928e-06
3.37102e-06
1.05183e-05
2.34125e-05
2.23966e-05
1.48472e-05
1.20546e-05
1.49264e-05
7.14702e-06
3.37162e-06
7.06817e-06
5.68929e-06
3.45064e-06
6.10304e-06
4.34695e-06
2.11243e-06
6.09243e-06
5.25773e-06
5.99641e-06
2.17981e-06
2.02683e-06
3.28463e-06
4.77653e-06
1.11815e-05
6.7348e-06
4.27815e-06
3.38566e-06
3.88145e-06
4.17653e-06
5.98868e-06
7.43178e-06
4.40532e-06
3.14368e-06
2.49692e-06
3.03506e-06
2.76611e-06
3.70621e-06
3.51278e-06
5.40259e-06
8.38729e-07
6.37716e-07
1.30761e-06
1.48786e-06
1.21069e-06
1.44968e-06
1.67222e-06
1.50828e-06
2.3934e-06
5.01549e-06
4.21681e-06
3.86129e-06
1.26813e-06
1.28939e-06
1.57181e-06
6.93758e-07
8.93941e-07
1.64789e-06
1.27034e-06
2.34662e-06
1.42427e-06
1.85474e-06
1.75693e-06
1.35155e-06
9.70962e-07
1.73141e-06
1.89779e-06
7.89535e-07
1.13367e-06
7.84224e-07
1.09126e-06
1.4867e-06
1.25781e-06
1.11128e-06
9.04624e-07
1.73959e-06
1.58718e-06
1.0694e-06
1.12389e-06
1.09268e-06
5.86702e-05
7.26863e-05
4.58522e-05
2.06202e-05
1.76112e-05
1.79262e-05
1.97311e-05
3.61658e-05
5.67058e-05
6.03353e-05
5.44568e-05
6.02204e-05
7.5366e-05
9.92885e-05
0.000105726
8.78956e-05
9.55262e-05
7.11117e-05
3.86539e-05
4.19934e-05
5.50404e-05
9.46517e-05
8.25742e-05
2.58587e-05
2.00102e-05
1.5541e-05
1.60565e-05
2.49625e-05
4.31773e-05
3.84042e-05
3.17622e-05
3.16723e-05
3.65429e-05
6.81322e-05
7.47874e-05
5.96853e-05
7.70184e-05
8.54421e-05
5.14718e-05
4.76965e-05
4.09431e-05
6.73868e-05
7.38877e-05
6.1504e-05
3.4395e-05
1.5375e-05
1.26343e-05
1.13211e-05
1.27383e-05
1.5426e-05
6.40362e-06
4.28131e-06
2.46345e-06
5.41617e-06
5.09352e-06
2.04035e-05
7.32553e-06
3.06867e-05
4.27407e-05
2.78512e-05
7.87183e-06
1.17406e-05
3.44113e-05
1.55939e-05
6.48736e-06
8.8573e-06
9.18296e-06
6.38695e-06
3.96076e-06
2.96023e-06
2.60767e-06
2.4677e-06
3.15418e-06
4.04254e-06
4.38176e-06
3.69242e-06
2.45115e-06
5.72273e-06
9.10738e-06
2.11265e-05
6.84985e-06
1.55695e-05
1.66184e-05
1.87715e-05
6.2004e-06
7.37487e-06
4.76877e-06
2.61878e-06
1.33825e-06
3.74269e-06
4.59009e-06
6.31095e-06
5.80997e-06
2.76309e-06
3.9163e-06
4.03269e-06
2.88158e-06
3.88716e-06
7.51688e-06
5.98945e-06
1.01253e-05
7.68866e-06
8.91784e-06
6.23486e-06
5.60717e-06
7.52167e-06
4.92363e-06
5.16505e-06
5.05831e-06
3.39597e-06
7.584e-06
7.20259e-06
7.88815e-06
3.79842e-06
5.00418e-06
5.27604e-06
7.76071e-06
3.31786e-06
4.7741e-06
3.95967e-06
7.3689e-06
4.5559e-06
4.42377e-06
4.6973e-06
3.89436e-06
4.19561e-06
3.64208e-06
5.0755e-06
5.63721e-06
7.73919e-06
5.63955e-06
5.93741e-06
7.72139e-06
2.77962e-06
5.01295e-06
1.11613e-05
7.68038e-06
5.50565e-06
2.9668e-06
2.60391e-06
6.07509e-06
4.76062e-06
2.85664e-06
3.6244e-06
6.53958e-06
5.60481e-06
2.81166e-06
4.95461e-06
4.60817e-06
6.67681e-06
9.51388e-06
8.66785e-06
5.79897e-06
2.06317e-06
2.20843e-06
5.97485e-06
3.26265e-06
4.43666e-06
3.78783e-06
2.85496e-06
2.30306e-06
2.77426e-06
3.25794e-06
2.78973e-06
3.78116e-06
3.07872e-06
3.19201e-06
4.22646e-06
7.37959e-06
6.37119e-06
3.20842e-06
3.54908e-06
3.36808e-06
1.65895e-06
3.43036e-06
3.17942e-06
1.71752e-06
2.4286e-06
2.60124e-06
2.04763e-06
2.81678e-06
2.93757e-06
2.68452e-06
3.09633e-06
1.97274e-06
1.24711e-06
1.48348e-06
2.19388e-06
2.39616e-06
2.03115e-06
2.30448e-06
3.79321e-06
3.47988e-06
3.43868e-06
3.53219e-06
1.29578e-06
1.24159e-06
1.60435e-06
1.86116e-06
2.69467e-06
7.9603e-07
9.77313e-07
1.80983e-06
2.04931e-06
1.69798e-06
1.5482e-06
1.12762e-06
1.15143e-06
2.08177e-06
2.72517e-06
5.70132e-06
6.30624e-06
4.15326e-06
2.10324e-06
2.39163e-06
2.12061e-06
9.48387e-07
8.20215e-07
8.78633e-07
1.72295e-06
7.76495e-07
8.67921e-07
1.02867e-06
1.32869e-06
1.24345e-06
1.1489e-06
9.78663e-07
9.18646e-07
8.95426e-07
8.30665e-07
1.2319e-06
2.46605e-06
1.48025e-06
1.18759e-06
1.1172e-06
7.04483e-07
5.75708e-07
5.40212e-07
6.78945e-07
1.07153e-06
9.02489e-05
0.00011632
6.84539e-05
2.10645e-05
2.38788e-05
3.62005e-05
3.12087e-05
2.93755e-05
4.14833e-05
4.83331e-05
4.94094e-05
6.07723e-05
7.92288e-05
0.000102611
8.9502e-05
8.13439e-05
9.45312e-05
9.02477e-05
7.78333e-05
9.73332e-05
8.45927e-05
0.000129277
7.83771e-05
2.52026e-05
1.65927e-05
2.57946e-05
2.55482e-05
2.14317e-05
3.15261e-05
3.17193e-05
2.81625e-05
2.86517e-05
4.09537e-05
6.35318e-05
6.24641e-05
4.87896e-05
5.51295e-05
5.90797e-05
4.94631e-05
7.13756e-05
2.4079e-05
8.97258e-05
0.000116812
2.90354e-05
1.23031e-05
1.20971e-05
1.23975e-05
9.60354e-06
1.16274e-05
1.08362e-05
4.43158e-06
2.7073e-06
4.19602e-06
7.95187e-06
7.54508e-06
4.99925e-06
3.3887e-06
7.97253e-06
9.4999e-06
6.29492e-06
2.83876e-05
6.38128e-05
8.77692e-05
4.27537e-05
2.42165e-05
9.17646e-06
6.49598e-06
5.63782e-06
1.06161e-05
1.09083e-05
5.80638e-06
2.93435e-06
2.93556e-06
2.85545e-06
6.20889e-06
4.64895e-06
4.81711e-06
7.1907e-06
5.73041e-06
1.11896e-05
3.19032e-05
4.45505e-05
5.57691e-05
5.00046e-05
1.90972e-05
1.40826e-05
6.21048e-06
3.52003e-06
4.62976e-06
4.18998e-06
5.68686e-06
3.46992e-06
3.92187e-06
2.39462e-06
4.61475e-06
4.89918e-06
3.62884e-06
6.42616e-06
4.58836e-06
8.03088e-06
2.97171e-05
3.98302e-05
2.32235e-05
1.56776e-05
5.87275e-06
6.74958e-06
4.15962e-06
4.36356e-06
4.76613e-06
3.22231e-06
4.23186e-06
6.77448e-06
6.79507e-06
3.57749e-06
3.93141e-06
1.10476e-05
8.30205e-06
7.05782e-06
2.72345e-06
5.19537e-06
2.13146e-05
1.11724e-05
9.96378e-06
1.11877e-05
4.68653e-06
3.20975e-06
2.6771e-06
3.48341e-06
4.89705e-06
4.92945e-06
5.05467e-06
6.36204e-06
6.49467e-06
3.45949e-06
4.73391e-06
1.16086e-05
1.35627e-05
4.02382e-06
5.14912e-06
1.76632e-06
1.99932e-05
1.2502e-05
3.80924e-06
4.341e-06
4.54458e-06
4.24725e-06
3.01015e-06
2.84527e-06
5.28236e-06
7.23866e-06
7.01695e-06
8.02029e-06
7.888e-06
2.23172e-06
3.23008e-06
3.67815e-06
5.91261e-06
2.58473e-06
2.77324e-06
2.01223e-06
6.59984e-06
4.35289e-06
4.04105e-06
4.11305e-06
2.79647e-06
3.1198e-06
3.38243e-06
2.46734e-06
5.48013e-06
6.47398e-06
2.52099e-06
2.28576e-06
2.23838e-06
1.37173e-06
2.74677e-06
3.81981e-06
1.42014e-06
1.65775e-06
1.801e-06
1.63122e-06
1.50797e-06
1.26328e-06
1.60086e-06
2.41961e-06
1.57342e-06
8.7043e-07
1.23986e-06
2.83097e-06
2.9376e-06
2.75783e-06
2.89236e-06
5.04907e-06
4.82556e-06
3.48284e-06
4.51826e-06
4.18064e-06
8.65948e-07
1.3655e-06
1.77546e-06
2.17033e-06
8.78706e-07
9.34913e-07
1.12703e-06
1.4998e-06
2.16885e-06
1.62944e-06
1.11858e-06
1.51018e-06
1.70282e-06
2.58461e-06
4.57001e-06
5.70449e-06
2.70259e-06
3.31882e-06
3.4331e-06
2.30029e-06
7.87109e-07
7.18373e-07
9.02677e-07
1.76381e-06
7.9939e-07
8.61104e-07
6.7621e-07
9.11149e-07
9.92112e-07
9.25571e-07
8.3309e-07
1.25228e-06
9.14046e-07
1.36311e-06
1.92891e-06
1.68999e-06
1.46083e-06
1.22134e-06
1.12988e-06
6.48852e-07
4.27874e-07
6.30904e-07
6.02754e-07
1.06594e-06
1.97441e-05
2.42159e-05
2.63424e-05
5.10956e-05
4.16334e-05
3.84271e-05
3.81865e-05
2.64723e-05
2.14947e-05
1.93209e-05
2.13248e-05
2.64626e-05
3.02372e-05
2.61529e-05
1.79842e-05
2.03622e-05
2.64754e-05
3.94115e-05
5.01353e-05
4.64995e-05
4.59765e-05
3.15183e-05
3.10708e-05
6.18888e-05
7.31033e-05
3.88885e-05
4.16319e-05
3.46462e-05
3.08374e-05
1.98447e-05
1.91817e-05
1.35646e-05
3.29762e-05
1.69844e-05
1.44598e-05
1.54586e-05
1.38324e-05
1.69279e-05
3.87299e-05
2.51024e-05
4.18095e-05
3.64629e-05
2.86881e-05
3.35556e-05
8.31773e-05
5.51639e-05
1.72224e-05
2.45362e-05
2.33901e-05
2.79765e-05
9.27937e-06
9.65068e-06
1.27226e-05
1.60043e-05
1.20414e-05
1.06011e-05
1.03103e-05
6.78985e-06
9.34623e-06
8.26874e-06
2.66037e-05
3.43474e-05
1.9393e-05
2.63285e-05
6.8571e-05
5.64558e-05
3.47456e-05
1.53238e-05
1.45601e-05
3.21019e-05
2.19387e-05
1.68945e-05
7.58176e-06
9.4871e-06
6.87686e-06
4.81738e-06
4.78498e-06
6.16546e-06
6.24163e-06
6.83526e-06
2.38402e-05
2.27749e-05
1.57839e-05
2.85302e-05
2.3092e-05
2.8568e-05
1.66085e-05
2.29043e-05
1.2499e-05
2.43715e-05
7.32332e-06
1.70072e-05
1.67446e-05
1.46389e-05
7.61308e-06
7.28409e-06
8.02519e-06
5.40601e-06
4.64315e-06
4.02331e-06
3.43616e-05
1.49234e-05
1.25348e-05
1.25287e-05
8.08261e-06
7.48461e-06
1.91202e-05
8.41444e-06
1.45841e-05
1.42072e-05
1.08746e-05
1.28001e-05
1.7704e-05
2.42971e-05
1.19886e-05
1.08311e-05
1.60352e-05
1.19402e-05
1.4454e-05
5.91127e-06
2.09869e-05
1.80955e-05
1.18689e-05
9.89419e-06
2.74765e-06
2.27238e-06
5.84509e-06
6.47156e-06
7.15327e-06
1.12194e-05
6.10524e-06
6.20452e-06
1.17263e-05
1.75224e-05
1.30781e-05
1.50577e-05
1.18492e-05
7.98252e-06
4.46027e-06
7.1409e-06
2.69536e-05
3.53241e-05
2.12083e-05
3.9349e-06
1.14695e-06
2.35732e-06
1.90309e-06
3.51314e-06
1.73838e-06
4.27888e-06
2.59168e-06
6.16085e-06
6.29594e-06
4.66448e-06
4.12324e-06
6.90294e-06
6.10534e-06
6.31599e-06
4.24205e-06
3.88921e-06
9.59209e-06
1.34996e-05
4.07874e-06
1.45517e-06
1.70486e-06
1.4991e-06
1.31446e-06
2.1827e-06
4.2769e-06
3.94549e-06
5.0729e-06
5.38483e-06
5.29117e-06
4.7006e-06
3.33168e-06
3.51825e-06
2.79789e-06
1.74675e-06
2.26055e-06
3.26463e-06
1.39524e-06
1.68366e-06
1.11121e-06
1.08605e-06
2.37323e-06
1.91685e-06
1.61111e-06
1.42712e-06
2.75559e-06
2.62367e-06
2.18518e-06
2.98622e-06
8.88461e-07
1.55564e-06
2.73521e-06
1.27198e-06
6.49071e-07
9.57471e-07
1.86819e-06
2.17444e-06
1.05571e-06
7.31369e-07
7.72596e-07
1.43621e-06
2.43623e-06
1.29266e-06
1.48154e-06
1.81225e-06
2.36017e-06
3.02849e-06
3.31118e-06
8.15775e-07
1.21725e-06
1.66053e-06
1.75153e-06
1.10638e-06
4.86722e-07
3.27298e-07
1.24416e-06
1.90139e-06
7.71068e-07
5.60044e-07
3.6672e-07
4.44407e-07
7.85693e-07
7.00831e-07
1.01305e-06
1.08455e-06
9.82896e-07
1.24567e-06
1.57806e-06
1.58719e-06
1.36427e-06
8.54491e-07
1.11558e-06
1.04622e-06
8.30703e-07
2.12404e-07
4.0506e-07
8.24154e-07
3.36977e-05
7.61419e-05
0.000102298
4.41864e-05
2.37545e-05
3.77277e-05
3.62779e-05
2.10372e-05
2.10551e-05
2.20683e-05
3.22197e-05
3.67771e-05
2.48755e-05
2.16881e-05
2.24685e-05
1.78633e-05
1.99716e-05
2.84692e-05
2.93683e-05
3.06297e-05
2.37661e-05
5.57437e-05
9.00992e-05
6.12109e-05
2.83285e-05
5.35069e-05
5.23869e-05
2.13316e-05
2.19635e-05
2.40673e-05
3.46637e-05
4.32806e-05
2.93382e-05
2.14907e-05
1.94607e-05
1.53931e-05
1.68323e-05
3.24303e-05
3.10435e-05
2.16758e-05
2.26465e-05
1.15486e-05
6.35923e-06
3.17262e-05
3.03624e-05
2.38608e-05
5.69003e-05
3.957e-05
2.56643e-05
1.62698e-05
1.57241e-05
2.6655e-05
3.15116e-05
2.07848e-05
1.35462e-05
7.81157e-06
1.01211e-05
1.30688e-05
2.56827e-05
2.20621e-05
1.60875e-05
1.83633e-05
1.65044e-05
1.16682e-05
2.33831e-05
4.96236e-05
9.51936e-05
8.64427e-05
3.61774e-05
3.28114e-05
1.58465e-05
1.87171e-05
2.12605e-05
2.19623e-05
3.87205e-05
1.83746e-05
9.23378e-06
1.166e-05
2.72559e-05
1.63402e-05
1.03985e-05
1.8431e-05
2.49628e-05
9.37215e-06
2.45599e-05
4.51945e-05
6.61063e-05
8.74041e-05
5.25293e-05
2.32794e-05
1.39489e-05
1.93874e-05
2.05017e-05
2.25659e-05
2.69925e-05
1.77651e-05
1.30116e-05
1.23742e-05
2.25212e-05
2.06889e-05
1.04819e-05
2.10852e-05
2.56277e-05
7.29864e-06
1.56305e-05
1.49861e-05
2.1465e-05
3.00116e-05
3.29684e-05
2.69818e-05
1.25845e-05
1.61968e-05
1.76591e-05
3.38487e-05
2.1018e-05
1.30889e-05
2.24229e-05
1.53033e-05
9.49456e-06
7.63866e-06
1.87428e-05
2.17617e-05
1.85792e-05
1.62562e-05
1.28206e-05
1.35515e-05
1.02537e-05
1.69413e-05
1.91023e-05
1.77961e-05
1.0081e-05
5.62109e-06
7.60371e-06
1.33521e-05
8.46378e-06
8.25804e-06
1.40516e-05
1.37883e-05
8.84207e-06
4.54632e-06
1.16686e-05
6.64228e-06
5.09079e-06
1.197e-05
1.53226e-05
3.26485e-06
4.48722e-06
1.09095e-05
1.96495e-05
2.6109e-05
9.13049e-06
3.58746e-06
6.18317e-06
7.20826e-06
6.03638e-06
2.98648e-06
9.67784e-06
1.12207e-05
8.39682e-06
3.5798e-06
2.61859e-06
1.79744e-06
2.17352e-06
2.06276e-06
2.13514e-06
2.58801e-06
2.37518e-06
3.53716e-06
1.94776e-05
2.0956e-05
4.51625e-06
4.26549e-06
6.5186e-06
6.33286e-06
3.56927e-06
2.87609e-06
2.64294e-06
2.37465e-06
2.54034e-06
2.53439e-06
2.20235e-06
1.77225e-06
5.75899e-07
9.87258e-07
6.36335e-07
4.37183e-07
6.1137e-07
1.22278e-06
2.12406e-06
2.46517e-06
1.42184e-06
1.76234e-06
2.16989e-06
2.43663e-06
1.95616e-06
1.47878e-06
1.40983e-06
6.41911e-07
1.35895e-06
1.75219e-06
4.45186e-07
4.4775e-07
5.5723e-07
7.3913e-07
8.69925e-07
5.15071e-07
5.3968e-07
1.63726e-06
1.79217e-06
4.51397e-07
6.15518e-07
5.38424e-07
5.91136e-07
6.22928e-07
3.69296e-07
8.92128e-07
9.03954e-07
4.76143e-07
1.11269e-06
1.83933e-06
4.97295e-07
4.12484e-07
4.56247e-07
8.02461e-07
8.8739e-07
7.94129e-07
7.91654e-07
4.95191e-07
7.71013e-07
8.14323e-07
6.02977e-07
8.7141e-07
7.0241e-07
8.33317e-07
7.38998e-07
8.12185e-07
8.35324e-07
5.86311e-07
7.50449e-07
1.12542e-06
1.82043e-05
2.68341e-05
4.66891e-05
3.83753e-05
4.63121e-05
7.79865e-05
6.84119e-05
3.96463e-05
5.1486e-05
4.76526e-05
4.94567e-05
4.56274e-05
3.19075e-05
3.39837e-05
3.46494e-05
1.92545e-05
2.73669e-05
4.81306e-05
4.84187e-05
2.65098e-05
1.8166e-05
2.68623e-05
4.8834e-05
4.26438e-05
4.71531e-05
7.43949e-05
8.16626e-05
3.69739e-05
4.93811e-05
4.96619e-05
5.9565e-05
4.9475e-05
3.3388e-05
3.34847e-05
3.90006e-05
1.74019e-05
2.0132e-05
4.04316e-05
5.72962e-05
3.48199e-05
2.63761e-05
2.07695e-05
1.81421e-05
1.85823e-05
1.67453e-05
1.66863e-05
4.7882e-05
3.97675e-05
2.773e-05
1.65933e-05
2.17271e-05
3.01496e-05
2.82846e-05
2.34756e-05
3.40645e-05
1.6186e-05
1.83285e-05
1.18394e-05
2.51917e-05
3.60899e-05
4.46074e-05
3.36682e-05
2.12019e-05
2.33229e-05
1.04568e-05
3.66011e-05
3.18519e-05
1.56417e-05
1.78231e-05
2.15416e-05
2.39292e-05
2.59399e-05
2.9255e-05
4.09339e-05
4.15329e-05
1.30645e-05
1.64367e-05
1.29611e-05
1.34426e-05
9.44802e-06
1.76836e-05
2.60806e-05
3.16923e-05
2.76902e-05
1.96011e-05
1.89465e-05
2.74283e-05
2.628e-05
2.27412e-05
3.14421e-05
1.36641e-05
1.68946e-05
1.32549e-05
2.5874e-05
3.70587e-05
1.72234e-05
2.08106e-05
1.14897e-05
1.00868e-05
9.56257e-06
8.23119e-06
1.86205e-05
1.73989e-05
1.43457e-05
1.02327e-05
1.40131e-05
8.12674e-06
1.21267e-05
9.6907e-06
1.97718e-05
1.16447e-05
1.16082e-05
1.08159e-05
1.23275e-05
1.61625e-05
1.29617e-05
1.23744e-05
9.93642e-06
7.75815e-06
8.94716e-06
1.209e-05
1.73966e-05
2.5268e-05
1.30684e-05
9.75961e-06
1.09735e-05
1.01582e-05
1.25085e-05
9.1849e-06
1.17935e-05
7.41209e-06
5.53218e-06
6.69608e-06
9.63662e-06
7.65536e-06
4.36861e-06
7.55413e-06
6.85041e-06
3.60182e-06
2.91267e-06
6.64469e-06
7.29825e-06
1.20672e-05
1.05408e-05
9.94706e-06
6.57579e-06
6.21112e-06
8.5942e-06
1.20179e-05
2.212e-05
8.74487e-06
3.59973e-06
7.12881e-06
9.79697e-06
6.52867e-06
4.62998e-06
7.09355e-06
6.00063e-06
3.69158e-06
2.59274e-06
3.79304e-06
4.15448e-06
3.10524e-06
1.86767e-06
1.91973e-06
3.01929e-06
2.79412e-06
5.3175e-06
1.1678e-05
1.16728e-05
4.14063e-06
8.43152e-06
1.19404e-05
1.02698e-05
2.67834e-06
2.39349e-06
1.10447e-06
2.09251e-06
3.00506e-06
1.45949e-06
3.73258e-06
2.67408e-06
1.25039e-06
1.29002e-06
1.24972e-06
7.63728e-07
1.03737e-06
1.10073e-06
1.57695e-06
1.549e-06
7.63859e-07
2.32931e-06
3.59501e-06
3.73733e-06
2.15105e-06
2.28302e-06
1.78665e-06
5.70649e-07
1.04428e-06
1.60872e-06
1.50068e-06
1.53109e-06
1.58318e-06
1.48881e-06
1.74698e-06
1.17406e-06
9.07618e-07
7.76137e-07
1.26725e-06
8.90651e-07
9.13914e-07
9.94723e-07
8.30111e-07
7.09825e-07
1.02501e-06
1.58775e-06
1.36832e-06
6.47053e-07
1.77447e-06
2.4476e-06
3.60059e-07
4.13712e-07
4.3692e-07
7.10301e-07
1.15227e-06
1.52604e-06
1.26905e-06
4.68942e-07
4.30861e-07
9.21681e-07
8.41982e-07
1.00868e-06
8.54167e-07
8.76626e-07
8.87505e-07
5.98692e-07
7.83608e-07
8.33505e-07
8.34044e-07
8.4144e-07
5.4627e-05
5.84949e-05
8.1289e-05
9.55357e-05
6.18018e-05
4.83161e-05
4.42135e-05
4.99901e-05
5.81582e-05
8.36338e-05
4.31195e-05
5.08012e-05
0.000114835
8.5319e-05
6.73358e-05
9.26622e-05
5.47248e-05
2.85466e-05
2.07749e-05
1.73365e-05
5.36554e-05
4.9564e-05
5.80374e-05
8.43626e-05
6.41631e-05
5.23862e-05
3.68474e-05
3.29012e-05
3.03652e-05
6.71199e-05
4.49451e-05
2.78363e-05
6.28039e-05
6.09339e-05
3.06306e-05
7.74826e-05
7.12072e-05
3.8154e-05
3.38603e-05
2.26813e-05
1.24506e-05
1.38857e-05
1.39505e-05
1.74456e-05
2.47796e-05
2.23629e-05
2.09294e-05
1.31534e-05
1.43298e-05
1.65116e-05
2.23995e-05
2.32939e-05
2.26507e-05
1.62843e-05
1.04629e-05
1.07348e-05
2.96259e-05
3.93295e-05
4.17969e-05
4.00833e-05
6.67361e-06
7.99321e-06
1.59483e-05
1.52907e-05
1.71723e-05
1.64302e-05
8.23281e-06
4.97699e-06
6.74727e-06
5.42435e-06
8.46194e-06
1.1336e-05
2.43958e-05
2.34129e-05
7.69264e-06
8.61227e-06
1.45515e-05
9.46886e-06
1.37749e-05
3.25877e-05
4.76803e-06
9.8397e-06
1.11587e-05
1.31629e-05
1.46954e-05
6.37774e-06
4.85255e-06
3.45712e-06
2.85231e-06
2.55106e-06
9.26312e-06
1.08177e-05
1.6052e-05
1.28844e-05
6.11063e-06
2.09749e-05
1.10451e-05
9.14711e-06
1.71234e-05
2.58828e-05
8.59966e-06
6.99742e-06
6.15032e-06
8.80982e-06
1.02398e-05
3.62175e-06
4.65598e-06
2.2979e-06
2.41229e-06
1.95901e-06
6.61899e-06
1.15751e-05
1.13418e-05
1.0082e-05
1.05388e-05
1.46436e-05
5.04998e-06
6.68816e-06
2.3637e-05
2.40158e-05
8.19032e-06
6.90711e-06
4.29138e-06
7.86823e-06
1.95506e-05
1.19567e-05
3.54817e-06
4.15246e-06
2.72084e-06
1.31034e-06
4.27474e-06
7.89155e-06
7.35519e-06
8.52129e-06
6.64989e-06
4.20361e-06
4.14825e-06
3.95742e-06
4.88734e-06
1.45513e-05
7.24351e-06
7.81933e-06
5.89569e-06
4.62226e-06
2.10005e-05
1.99047e-05
1.36351e-05
7.41085e-06
3.81443e-06
2.18763e-06
3.96369e-06
5.98378e-06
6.35087e-06
4.61106e-06
2.0347e-06
2.35899e-06
3.72908e-06
4.5213e-06
3.3801e-06
2.75251e-06
5.92224e-06
5.45671e-06
6.89375e-06
5.1213e-06
1.3764e-05
1.85539e-05
1.48108e-05
5.85059e-06
4.23603e-06
2.34814e-06
2.95046e-06
4.38776e-06
6.64758e-06
6.3371e-06
3.53797e-06
2.09171e-06
2.22475e-06
3.93911e-06
2.41391e-06
3.30396e-06
7.98955e-06
6.49863e-06
4.48915e-06
2.94795e-06
3.25578e-06
5.15495e-06
6.02704e-06
5.53593e-06
4.38322e-06
2.03561e-06
8.90788e-07
3.13726e-06
2.20116e-06
1.67652e-06
1.45002e-06
1.14711e-06
2.28703e-06
3.65751e-06
2.27146e-06
1.15566e-06
4.88063e-06
6.36908e-06
4.47322e-06
4.14531e-06
5.60197e-06
5.70054e-06
4.26929e-06
1.88596e-06
6.78732e-07
9.829e-07
1.81223e-06
1.29655e-06
4.65502e-07
6.11504e-07
1.92577e-06
2.73911e-06
2.07213e-06
2.14737e-06
1.74407e-06
9.25924e-07
1.32196e-06
1.72952e-06
2.74071e-06
4.07362e-06
4.82185e-06
3.19765e-06
1.93477e-06
8.7751e-07
1.00981e-06
1.11873e-06
1.45976e-06
1.73521e-06
1.34505e-06
8.79968e-07
7.37288e-07
5.87018e-07
7.64808e-07
1.11847e-06
1.29808e-06
8.59638e-07
3.60069e-05
3.48402e-05
3.56667e-05
3.88921e-05
4.56372e-05
4.86024e-05
4.27038e-05
2.90936e-05
2.27215e-05
3.44361e-05
3.56382e-05
2.29392e-05
3.35686e-05
3.27025e-05
3.60676e-05
6.19167e-05
5.91683e-05
4.49748e-05
3.4547e-05
3.19445e-05
3.64895e-05
3.91264e-05
3.73868e-05
3.79266e-05
4.79201e-05
5.47969e-05
5.99096e-05
4.29761e-05
2.18376e-05
3.12505e-05
3.83263e-05
2.22268e-05
3.14003e-05
5.91237e-05
4.33697e-05
6.43334e-05
7.09738e-05
5.17681e-05
5.43965e-05
4.28251e-05
8.93617e-06
1.28065e-05
2.26381e-05
2.33382e-05
2.14161e-05
2.36083e-05
4.16256e-05
7.05942e-05
8.98406e-05
2.55418e-05
4.86193e-05
3.89379e-05
2.65571e-05
4.68093e-05
5.08462e-05
3.0572e-05
4.01138e-05
3.06961e-05
2.63147e-05
4.38826e-05
2.23726e-06
4.04835e-06
5.0654e-06
5.06813e-06
2.4681e-06
3.31868e-06
3.1025e-06
3.08101e-06
3.97802e-06
1.36848e-05
8.70929e-06
2.01102e-05
2.59223e-05
1.72973e-05
7.35322e-06
1.57508e-05
2.42779e-05
1.71713e-05
1.45063e-05
1.85977e-05
2.64525e-06
3.07409e-06
4.67888e-06
5.10893e-06
2.81515e-06
4.37372e-06
4.74479e-06
3.48868e-06
3.45734e-06
4.84016e-06
4.07751e-06
5.5876e-06
2.24461e-05
1.60682e-05
1.05212e-05
1.23891e-05
8.45432e-06
4.63729e-06
9.49873e-06
1.07105e-05
3.68992e-06
4.88491e-06
7.2598e-06
6.54378e-06
4.7379e-06
2.7673e-06
3.59801e-06
3.44851e-06
4.79327e-06
4.12575e-06
2.91859e-06
4.56496e-06
7.69053e-06
1.16937e-05
8.28201e-06
5.49532e-06
3.83653e-06
2.95035e-06
3.62849e-06
6.88905e-06
5.19511e-06
7.61433e-06
8.80633e-06
7.40944e-06
6.67533e-06
4.41487e-06
4.84789e-06
3.09522e-06
4.22163e-06
3.61934e-06
3.09479e-06
3.95951e-06
5.0821e-06
7.92939e-06
5.27658e-06
1.87176e-06
1.64304e-06
2.66826e-06
1.57031e-06
3.28022e-06
7.83979e-06
7.45687e-06
6.56953e-06
3.16544e-06
2.41927e-06
4.73957e-06
4.29305e-06
3.71456e-06
4.03563e-06
2.91855e-06
5.56075e-06
6.5717e-06
6.9681e-06
3.85e-06
3.34814e-06
3.02019e-06
2.18566e-06
3.84256e-06
2.72363e-06
2.44535e-06
8.98772e-06
5.9743e-06
5.81276e-06
3.76296e-06
5.25064e-06
3.66479e-06
4.02912e-06
4.48875e-06
4.16576e-06
1.9259e-06
3.20559e-06
7.55285e-06
1.02055e-05
8.38571e-06
3.93692e-06
2.2864e-06
1.74681e-06
4.59444e-06
3.35599e-06
2.35053e-06
3.58937e-06
4.23296e-06
3.79558e-06
2.1012e-06
2.66057e-06
1.92427e-06
2.37402e-06
4.86512e-06
4.09326e-06
2.20348e-06
2.44467e-06
2.56448e-06
1.81062e-06
2.01791e-06
2.23055e-06
4.50566e-06
3.18478e-06
2.92154e-06
2.68272e-06
1.28285e-06
1.66181e-06
2.09062e-06
3.20367e-06
3.9346e-06
4.10601e-06
3.10373e-06
2.5668e-06
1.91854e-06
1.8458e-06
1.92809e-06
1.72834e-06
1.25619e-06
5.15318e-07
1.36725e-06
2.41036e-06
6.00601e-06
5.81589e-06
3.9542e-06
2.73631e-06
1.56063e-06
1.36512e-06
1.12825e-06
1.50419e-06
2.62092e-06
3.69545e-06
3.61788e-06
2.32629e-06
1.59577e-06
1.17837e-06
8.63601e-07
1.42897e-06
1.99274e-06
1.67016e-06
9.52287e-07
5.36443e-07
5.33171e-07
8.52784e-07
9.83148e-07
1.1801e-06
9.89763e-07
3.89833e-05
3.38287e-05
3.55655e-05
3.8725e-05
4.81044e-05
5.94812e-05
7.24667e-05
7.85071e-05
6.72633e-05
8.20085e-05
7.02285e-05
6.10523e-05
9.6778e-05
9.14547e-05
1.8758e-05
1.7553e-05
1.74384e-05
1.5312e-05
1.28829e-05
1.38148e-05
3.43521e-05
3.23338e-05
3.32765e-05
3.20426e-05
3.91496e-05
4.26121e-05
5.45372e-05
5.95865e-05
4.29559e-05
5.70529e-05
5.34589e-05
4.92416e-05
7.55322e-05
9.75888e-05
3.33594e-05
2.14373e-05
2.01567e-05
1.82954e-05
1.60615e-05
1.4009e-05
8.56994e-06
1.23313e-05
1.69025e-05
1.54956e-05
1.09456e-05
1.07726e-05
1.2573e-05
2.49323e-05
3.62463e-05
1.1291e-05
1.31184e-05
2.32132e-05
2.984e-05
5.06925e-05
5.90753e-05
2.53449e-05
2.53027e-05
1.4744e-05
2.24441e-05
2.39597e-05
2.46402e-06
3.79926e-06
3.90365e-06
6.60463e-06
7.9622e-06
7.98018e-06
8.23692e-06
4.21898e-06
6.72405e-06
7.2943e-06
6.11697e-06
9.8934e-06
1.41409e-05
7.0205e-06
2.67234e-05
4.07415e-05
2.88689e-05
3.69975e-05
2.4819e-05
2.52811e-05
7.52383e-06
7.09288e-06
3.82918e-06
7.70632e-06
9.73704e-06
8.82412e-06
8.66991e-06
5.77238e-06
5.1849e-06
8.76415e-06
8.70887e-06
1.09563e-05
9.37828e-06
6.77931e-06
7.20901e-06
2.10408e-05
1.89809e-05
1.02653e-05
1.50847e-05
2.22952e-05
4.48893e-06
2.49139e-06
3.5835e-06
5.94511e-06
5.23249e-06
5.63929e-06
4.10293e-06
8.79497e-06
9.63086e-06
6.53977e-06
6.25093e-06
5.68452e-06
3.78984e-06
3.53232e-06
3.69258e-06
4.72098e-06
4.54009e-06
2.38842e-06
2.11027e-06
4.67222e-06
3.90127e-06
5.31631e-06
6.44902e-06
5.89494e-06
4.90027e-06
7.08705e-06
6.20025e-06
1.24208e-05
6.94372e-06
3.57092e-06
4.27544e-06
4.0271e-06
2.87246e-06
3.64483e-06
2.18236e-06
2.27062e-06
1.96737e-06
1.79026e-06
1.79613e-06
3.69746e-06
6.81537e-06
4.1624e-06
4.6388e-06
2.9051e-06
6.1841e-06
6.44599e-06
4.52398e-06
9.06654e-06
4.33722e-06
2.93602e-06
4.27515e-06
5.7678e-06
6.05336e-06
5.5813e-06
2.55944e-06
2.61869e-06
3.26771e-06
1.91457e-06
3.47057e-06
2.92017e-06
4.32591e-06
4.20057e-06
3.51588e-06
3.35996e-06
5.41718e-06
3.9431e-06
3.26461e-06
5.43271e-06
2.20611e-06
1.53383e-06
2.68298e-06
4.39059e-06
5.74111e-06
3.51147e-06
2.93965e-06
3.27122e-06
4.66256e-06
4.17229e-06
3.53978e-06
1.88707e-06
1.97148e-06
2.82711e-06
2.21639e-06
1.55289e-06
2.47056e-06
2.55692e-06
2.52874e-06
4.34352e-06
4.00482e-06
2.09658e-06
2.483e-06
2.24982e-06
1.1405e-06
1.85943e-06
3.02245e-06
6.89958e-06
5.51668e-06
4.20987e-06
1.72805e-06
6.92924e-07
2.01014e-06
1.80122e-06
1.57223e-06
1.8453e-06
4.17051e-06
3.97088e-06
2.33402e-06
1.37457e-06
1.2633e-06
1.27313e-06
1.06686e-06
9.82952e-07
5.43799e-07
7.58501e-07
2.39032e-06
5.12163e-06
5.3455e-06
3.21186e-06
2.17182e-06
1.48715e-06
1.59323e-06
1.85326e-06
2.14273e-06
2.31747e-06
2.42662e-06
2.18134e-06
1.3377e-06
1.66598e-06
1.45052e-06
5.29169e-07
1.11017e-06
1.39965e-06
1.10758e-06
6.58431e-07
5.01424e-07
5.76569e-07
4.87233e-07
6.56737e-07
7.51512e-07
6.83448e-07
1.93749e-05
1.93114e-05
2.09434e-05
2.36177e-05
2.76442e-05
2.9195e-05
2.61692e-05
2.92318e-05
3.56038e-05
3.25156e-05
2.85412e-05
3.26862e-05
3.39396e-05
3.64994e-05
3.35557e-05
2.85782e-05
2.78175e-05
2.77635e-05
2.69032e-05
3.39604e-05
1.77801e-05
1.86805e-05
2.01089e-05
2.13722e-05
3.09898e-05
2.72639e-05
2.60446e-05
2.57634e-05
3.45549e-05
2.91372e-05
2.61023e-05
3.3058e-05
3.24578e-05
3.94142e-05
3.9088e-05
3.04551e-05
2.86548e-05
3.12271e-05
2.67399e-05
2.93348e-05
1.24883e-05
1.1018e-05
1.13202e-05
1.03193e-05
1.13159e-05
1.32979e-05
2.45677e-05
1.15029e-05
9.54813e-06
1.29358e-05