/*--------------------------------*- C++ -*----------------------------------*\
| =========                 |                                                 |
| \\      /  F ield         | OpenFOAM: The Open Source CFD Toolbox           |
|  \\    /   O peration     | Version:  5.0                                   |
|   \\  /    A nd           | Web:      www.OpenFOAM.org                      |
|    \\/     M anipulation  |                                                 |
\*---------------------------------------------------------------------------*/
FoamFile
{
    version     2.0;
    format      ascii;
    class       volScalarField;
    location    "0";
    object      nut;
}
// * * * * * * * * * * * * * * * * * * * * * * * * * * * * * * * * * * * * * //

dimensions      [0 2 -1 0 0 0 0];

internalField   nonuniform List<scalar> 
7200
(
2.91722e-09
2.24319e-09
1.42465e-09
2.34135e-09
7.56461e-09
9.68813e-09
3.13755e-09
3.52422e-10
1.81642e-09
1.89401e-09
8.62961e-10
2.86903e-09
6.02093e-09
7.8091e-09
8.25395e-09
2.62309e-09
3.55294e-08
5.48828e-08
2.7083e-08
9.16322e-09
1.05173e-08
7.78327e-09
5.01218e-09
9.34379e-09
2.95441e-08
3.00441e-08
9.92139e-09
1.20336e-09
1.14169e-08
1.35368e-08
1.07733e-08
1.76196e-08
2.10641e-08
2.31858e-08
2.87589e-08
1.41516e-08
2.42929e-07
2.7683e-07
1.2714e-07
1.6403e-08
6.44833e-08
4.56227e-08
2.46332e-08
1.10765e-08
7.57552e-08
9.87551e-08
2.47681e-08
8.71876e-09
8.17092e-08
8.33641e-07
2.60033e-06
1.66917e-06
1.12001e-07
9.4956e-08
1.20517e-07
7.1799e-08
4.067e-07
4.18519e-06
5.24663e-06
1.31106e-06
7.93395e-06
1.09591e-06
3.2526e-06
1.81021e-07
1.34037e-06
1.14573e-06
4.19435e-07
4.88597e-08
2.06704e-08
2.12147e-07
7.29055e-07
1.56107e-05
1.70163e-05
9.14515e-06
1.41052e-06
2.49884e-06
2.43398e-06
3.93432e-07
8.09205e-06
3.15631e-05
1.95902e-05
3.56637e-06
9.93264e-07
3.90767e-06
1.2867e-06
2.42646e-06
2.60633e-06
7.76274e-07
2.41241e-07
1.90893e-07
5.68762e-07
8.61702e-06
2.33968e-05
2.71359e-05
3.01921e-06
2.16949e-06
9.19059e-06
8.22372e-06
3.00639e-06
1.50979e-05
2.67457e-05
7.33355e-06
2.44086e-06
1.40745e-06
2.6066e-06
2.94881e-06
4.03792e-06
2.88426e-06
2.05608e-06
4.12939e-06
2.94222e-06
3.71348e-06
8.38521e-06
3.32267e-05
7.6592e-06
1.69613e-06
4.20485e-06
1.83053e-05
1.10086e-05
1.10773e-05
1.28013e-05
1.26341e-05
3.97768e-06
1.77939e-06
3.22448e-06
9.85647e-07
4.57756e-06
1.09012e-05
6.30633e-06
1.09193e-05
8.02071e-06
5.08545e-06
6.93573e-06
1.82274e-05
2.10554e-05
7.26287e-06
2.61806e-06
2.80204e-06
6.75741e-06
3.05691e-06
4.31753e-06
3.07686e-06
3.56844e-06
3.86794e-06
3.24035e-06
1.64176e-06
3.88645e-06
7.23053e-06
2.93512e-06
1.62741e-05
1.03545e-05
7.83668e-06
7.33835e-06
1.45491e-05
2.90918e-05
1.58734e-05
9.94596e-06
5.0522e-06
3.58133e-06
2.83901e-06
2.97044e-06
4.07239e-06
4.32001e-06
8.81468e-06
3.48247e-06
3.01614e-06
2.19628e-06
2.08814e-06
1.3732e-05
2.52628e-05
4.33281e-06
1.0164e-05
3.26068e-06
4.94267e-06
6.6313e-06
4.76235e-06
5.16598e-06
2.31527e-06
1.09314e-05
2.48205e-06
7.74222e-06
4.56624e-06
1.8742e-06
6.23071e-06
5.81784e-06
1.06728e-05
6.74565e-06
3.61695e-06
3.35789e-06
1.13815e-05
8.46929e-06
1.3083e-05
5.90036e-06
3.85407e-06
9.51208e-06
3.59126e-06
2.04456e-06
1.84192e-06
9.3842e-06
3.53793e-05
2.08054e-05
1.30501e-05
6.85341e-06
1.83408e-05
1.43297e-05
6.34854e-06
1.16936e-05
1.06361e-05
1.23611e-06
1.31155e-06
7.07719e-06
9.25761e-06
4.71824e-06
1.63541e-05
2.97441e-05
1.6505e-05
3.36003e-06
4.07289e-06
5.54462e-06
2.50911e-05
3.34162e-05
2.78338e-05
1.85868e-05
4.06148e-06
1.23597e-05
1.7036e-05
1.16118e-05
4.81568e-06
6.77555e-06
7.91866e-06
8.09931e-06
1.16131e-05
1.21609e-05
2.58111e-06
2.434e-05
2.56706e-05
5.21276e-06
1.8621e-05
1.69257e-05
2.90581e-06
4.53483e-08
1.48888e-08
7.43766e-09
4.65265e-09
6.03747e-09
6.97379e-09
4.25267e-09
1.44686e-09
6.43844e-10
1.43989e-09
2.22799e-09
5.22255e-09
1.24943e-08
2.68295e-08
7.23174e-08
1.35483e-07
6.55594e-08
4.25777e-09
4.41829e-08
9.86995e-08
1.6361e-07
1.06002e-07
1.89117e-08
8.07083e-08
1.19159e-07
3.49025e-08
2.25257e-08
5.39724e-09
3.74622e-09
1.07445e-08
5.44745e-09
1.83819e-08
2.75837e-08
6.92968e-08
1.94953e-07
2.62818e-07
5.91036e-08
9.81359e-09
3.34907e-08
3.18615e-07
1.71695e-06
2.97273e-07
2.61045e-07
2.28879e-07
3.70022e-07
5.65942e-07
6.05051e-07
1.71204e-07
6.05612e-07
1.614e-07
6.86255e-08
2.16536e-08
5.54066e-08
7.75465e-08
3.63988e-07
3.91768e-07
2.82696e-07
2.49172e-08
6.77827e-08
1.00367e-06
9.02104e-06
8.38559e-06
5.12376e-06
1.09776e-06
4.439e-07
4.13251e-07
3.46377e-07
4.29001e-07
1.20304e-06
2.40846e-06
4.30189e-06
3.2759e-06
5.2543e-06
1.35416e-06
1.48109e-06
1.31827e-06
1.10741e-06
1.18902e-06
2.48046e-07
1.18702e-06
1.22427e-05
8.88377e-06
2.4073e-05
6.51394e-06
5.54984e-06
8.66289e-06
8.02183e-06
6.14377e-07
4.03156e-07
2.16122e-07
3.5691e-07
3.48025e-06
3.13586e-06
3.72671e-06
1.92051e-06
2.40577e-06
1.52171e-06
1.26406e-06
1.78623e-06
8.11636e-06
1.89349e-05
1.33966e-05
8.92971e-06
2.58747e-05
3.14996e-05
3.41331e-05
2.3537e-05
4.3785e-06
2.72811e-06
3.05691e-06
5.3975e-06
7.61237e-06
5.78359e-06
6.42389e-06
2.89189e-06
3.75904e-06
2.64456e-06
2.23455e-06
2.23312e-06
1.30326e-06
1.34684e-06
6.64914e-06
4.50168e-06
7.80182e-06
7.90203e-06
1.7292e-05
1.17091e-05
6.5101e-06
2.99623e-06
4.87882e-06
8.17259e-06
3.05647e-05
8.98527e-06
5.60848e-06
3.76661e-06
4.16459e-06
4.10835e-06
1.93916e-06
5.49474e-06
3.20712e-06
3.16286e-06
9.33077e-06
1.39796e-05
5.25272e-06
5.62803e-06
4.57527e-06
3.52398e-06
5.03851e-06
5.74651e-06
6.45316e-06
1.78105e-05
4.15118e-05
1.71823e-05
5.19021e-06
4.96908e-06
5.56579e-06
5.71905e-06
4.19982e-06
5.74674e-06
4.89395e-06
2.72218e-06
3.43055e-06
2.05641e-05
2.20164e-05
1.35759e-05
3.66606e-06
3.44402e-06
6.61302e-06
6.11798e-06
2.12502e-06
1.3211e-06
1.93354e-05
2.10082e-05
3.99698e-06
7.0032e-06
1.07834e-05
5.53055e-06
6.91646e-06
1.1367e-05
4.37902e-06
5.29603e-06
4.85682e-06
4.9305e-06
7.08332e-06
2.79757e-05
6.2925e-06
1.50052e-05
8.50256e-06
2.98644e-06
1.14429e-05
1.059e-05
3.39958e-06
6.51966e-06
2.66432e-06
1.10255e-05
1.21069e-05
9.83822e-06
1.22364e-05
1.91352e-05
3.82044e-06
1.29255e-05
1.60545e-05
4.42556e-06
6.44374e-06
3.804e-06
1.38222e-05
2.4933e-05
1.96033e-05
8.0006e-06
7.26809e-06
6.28515e-06
2.93077e-06
3.85519e-06
1.0623e-05
3.93106e-06
4.63182e-06
4.735e-06
8.42232e-06
3.91686e-06
5.64925e-06
2.94691e-06
6.34597e-06
4.64649e-06
1.50254e-06
1.93189e-06
1.00124e-05
6.58767e-06
7.39056e-06
2.25886e-05
2.91793e-05
1.42666e-05
5.1901e-06
2.5171e-06
3.17814e-06
8.15207e-06
6.93276e-06
6.7861e-06
8.78518e-06
6.06316e-06
2.64713e-06
6.07222e-08
1.10266e-08
6.36534e-09
4.55883e-09
2.5743e-09
2.09512e-09
1.45541e-09
8.29474e-10
1.66692e-09
5.34111e-09
1.3525e-08
1.29056e-08
1.23797e-08
7.59611e-08
1.25503e-07
4.0818e-08
6.50084e-09
8.37082e-09
3.26825e-08
9.02935e-08
1.22941e-07
4.04558e-08
4.22678e-08
2.11417e-08
1.70334e-08
1.31563e-08
4.6716e-09
2.95492e-09
5.32271e-09
1.02996e-08
2.79197e-08
3.21277e-08
6.39941e-08
2.70828e-07
2.95687e-07
1.29793e-07
1.30437e-08
2.3217e-08
7.83238e-08
1.94308e-07
2.6804e-07
2.13051e-07
3.84592e-07
3.1529e-07
2.75636e-07
2.60674e-07
1.97866e-07
6.55817e-08
1.0359e-08
1.9298e-08
6.04885e-08
8.70509e-08
6.75339e-08
2.60217e-07
8.56127e-07
8.54789e-07
2.14726e-07
8.47604e-08
2.66493e-07
4.43065e-07
1.26508e-06
6.78261e-07
2.63412e-06
3.70708e-06
3.29458e-06
2.89864e-06
1.59609e-06
8.88019e-07
4.9374e-07
1.61847e-06
3.84182e-06
6.96877e-06
8.7778e-07
1.16114e-07
1.42279e-07
4.149e-07
4.12624e-07
3.58095e-06
4.39759e-06
1.43663e-06
3.24074e-06
1.13575e-06
3.44817e-06
4.80524e-06
3.86328e-06
2.75303e-06
2.08027e-06
1.3634e-06
1.19727e-06
1.32099e-06
3.23949e-06
9.83402e-06
8.35342e-06
5.34873e-06
2.22767e-06
9.628e-07
6.69184e-07
2.92574e-06
1.03729e-05
3.48138e-06
5.46511e-06
2.40579e-06
2.27128e-06
8.24409e-06
6.8215e-06
6.93836e-06
8.22731e-06
1.44333e-05
5.83353e-06
3.82986e-06
2.3315e-06
4.47965e-06
5.53648e-06
2.07114e-05
1.07442e-05
3.2222e-06
4.45442e-06
1.14961e-05
7.31617e-06
4.93964e-06
4.39606e-06
5.80816e-06
4.50975e-06
3.48729e-06
4.70388e-06
9.75221e-06
2.55868e-05
3.66225e-05
4.51023e-05
1.60382e-05
7.35387e-06
1.13301e-05
3.06419e-06
1.20388e-05
1.58594e-05
1.84469e-05
5.74564e-06
1.29321e-05
1.47971e-05
8.7194e-06
3.97581e-06
4.84649e-06
4.7705e-06
4.03525e-06
2.59317e-06
2.74724e-06
6.90446e-06
3.96806e-05
4.17862e-05
1.03129e-05
1.10623e-05
2.41704e-05
1.81114e-05
1.24849e-05
7.80858e-06
2.64016e-05
1.51919e-05
1.45943e-05
1.62336e-05
8.55874e-06
1.2015e-05
2.29135e-06
5.39047e-06
2.49936e-05
2.53372e-05
1.72395e-05
4.59886e-06
5.38718e-06
8.57285e-06
5.47688e-06
4.14115e-06
6.03303e-06
9.52693e-06
2.05102e-05
4.63149e-06
3.42783e-06
7.8773e-06
7.21149e-06
1.73515e-05
2.02948e-05
1.0201e-05
5.76647e-06
5.47542e-06
5.08839e-06
2.76e-06
6.64098e-06
2.30091e-05
1.19721e-05
4.0273e-06
3.4982e-06
4.72884e-06
4.01843e-06
8.38945e-06
8.71761e-06
6.5243e-06
9.77858e-06
1.91714e-05
1.93207e-05
5.15367e-06
5.17718e-06
1.40639e-05
2.63861e-06
3.71791e-06
4.61577e-06
4.25635e-06
4.07046e-06
5.91082e-06
6.79391e-06
3.7105e-06
4.39735e-06
4.05918e-06
5.66223e-06
8.26632e-06
9.53205e-06
4.98519e-06
1.05625e-05
9.96846e-06
8.33441e-06
3.24686e-06
3.24515e-05
9.4885e-06
1.69672e-06
2.86868e-06
2.03917e-06
2.42012e-06
3.9431e-06
3.29039e-06
2.32941e-06
3.51012e-06
6.89811e-06
2.82044e-06
2.45794e-06
1.92953e-06
1.87458e-06
1.06461e-05
4.42115e-06
4.05028e-06
5.97228e-06
5.35574e-06
1.06346e-05
1.70895e-08
2.65395e-09
4.07309e-10
1.19549e-10
2.41518e-10
7.99947e-10
1.61542e-09
1.42088e-09
2.17994e-09
3.54535e-09
5.61414e-09
1.62271e-08
5.9829e-08
1.13153e-07
6.4173e-08
8.5949e-09
1.88518e-08
6.81355e-08
1.14456e-07
7.88629e-08
1.79689e-08
5.74971e-09
1.31365e-09
4.94694e-10
7.34303e-10
2.43637e-09
4.44571e-09
3.98386e-09
6.71486e-09
8.15101e-09
1.61401e-08
3.85756e-08
2.6273e-07
3.64975e-07
2.19035e-07
1.83682e-08
4.6263e-08
2.00164e-07
2.6118e-07
1.7815e-07
1.02589e-07
1.78937e-08
2.47837e-08
1.0675e-08
7.61033e-09
1.05562e-08
1.08824e-08
1.00619e-08
1.59714e-08
2.22202e-08
1.87136e-08
6.54532e-08
4.70601e-07
1.80249e-06
1.86279e-06
7.76401e-07
1.10159e-07
2.41774e-07
6.52927e-07
5.65795e-07
2.30397e-07
3.26811e-07
1.01301e-06
1.56127e-06
8.54297e-07
7.95365e-07
8.0686e-07
4.37276e-07
3.28982e-07
1.57333e-07
3.42704e-07
8.8439e-08
8.33139e-08
7.24707e-07
1.93471e-06
2.03476e-06
1.61164e-06
1.73741e-06
8.21245e-07
1.2961e-06
1.42869e-06
1.07484e-06
1.84937e-06
4.11469e-06
2.26511e-06
1.65942e-06
2.54405e-06
3.56136e-06
2.72875e-06
2.64057e-06
3.98069e-07
1.32659e-06
3.10022e-06
1.7768e-06
1.65727e-06
2.66783e-06
5.92413e-06
9.3914e-06
4.43628e-06
2.86515e-06
4.87548e-06
6.13455e-06
4.52813e-06
4.18158e-06
4.77065e-06
2.91387e-06
4.91521e-06
6.39574e-06
3.63101e-06
1.38897e-06
1.29712e-06
1.20429e-06
4.51564e-06
1.02524e-05
9.43717e-06
4.45387e-06
1.24352e-05
2.67624e-05
1.69542e-05
5.63807e-06
3.99897e-06
1.39153e-05
1.29711e-05
2.9277e-06
1.74703e-06
3.84408e-06
7.99801e-06
1.11032e-05
1.12739e-05
5.88073e-06
3.26185e-06
3.97391e-06
6.2018e-06
9.91978e-06
2.31928e-05
2.48149e-05
1.74395e-05
3.17204e-05
2.79924e-05
1.16929e-05
3.45203e-06
5.47624e-06
1.94806e-05
6.35121e-06
4.18625e-06
4.45791e-06
1.64134e-05
1.39136e-05
1.09642e-05
6.06469e-06
1.1283e-05
9.98008e-06
1.82752e-05
2.25486e-05
7.41771e-06
2.59768e-05
3.05e-05
2.82933e-05
1.74162e-05
9.50712e-06
4.40095e-06
4.97554e-06
8.96937e-06
2.23567e-05
9.11597e-06
1.68816e-05
1.01902e-05
6.54485e-06
1.40163e-05
1.24206e-05
5.50786e-06
7.00814e-06
3.00814e-05
3.51389e-05
2.9509e-06
4.60144e-06
3.08517e-06
9.09838e-06
2.09041e-05
1.19928e-05
1.83387e-05
1.42433e-05
5.84283e-06
1.76965e-05
7.0669e-06
5.88917e-06
9.20244e-06
3.65199e-06
3.50558e-06
6.62196e-06
1.14168e-05
8.08906e-06
1.53672e-05
1.30387e-05
1.79105e-05
1.3065e-05
4.27482e-06
7.11052e-06
1.00748e-05
6.44656e-06
7.66991e-06
5.57975e-06
3.45151e-06
6.58746e-06
7.68782e-06
7.76702e-06
9.15669e-06
2.91289e-06
3.4498e-06
1.50957e-05
8.44347e-06
4.16769e-06
4.15991e-06
1.01955e-05
1.01011e-05
5.77072e-06
6.94025e-06
5.17493e-06
1.89763e-05
1.61968e-05
4.94469e-06
3.88502e-06
3.12335e-06
1.77367e-06
1.9787e-06
7.08374e-06
1.68171e-06
2.07546e-06
2.54427e-06
2.98942e-06
3.64421e-06
5.38134e-06
3.89742e-06
4.60671e-06
1.71209e-05
4.82607e-06
1.12512e-05
7.53283e-06
3.33233e-06
7.34651e-06
6.40416e-09
1.41084e-09
5.41209e-09
8.97728e-09
9.33764e-10
2.79765e-10
1.18073e-09
1.99487e-09
3.12527e-09
1.6358e-08
2.28451e-08
8.59678e-09
1.33922e-09
4.80077e-10
6.90044e-10
1.79422e-09
6.87177e-09
6.2788e-09
2.48937e-09
8.84409e-09
3.8876e-08
4.14948e-09
1.33819e-08
2.10365e-08
2.16467e-09
1.00922e-09
1.74172e-08
5.23056e-09
3.10947e-08
6.76884e-08
1.62544e-08
6.26513e-09
1.14145e-09
1.26445e-09
2.20157e-09
2.62468e-09
3.84455e-09
2.17599e-08
1.3904e-08
3.50119e-08
1.53494e-07
2.046e-07
3.16807e-08
6.78043e-08
7.63739e-09
1.90062e-08
4.96157e-08
1.30794e-07
5.99151e-08
1.01696e-07
1.48351e-07
1.69174e-07
5.49536e-08
4.97945e-09
1.76567e-08
6.29937e-08
1.9587e-08
7.41132e-08
2.89443e-07
2.89855e-07
3.09949e-06
4.23761e-06
2.23434e-06
1.39195e-07
3.60695e-08
1.154e-07
6.99847e-08
3.95834e-07
2.43135e-07
8.92472e-07
3.31225e-07
5.27843e-07
9.91443e-07
6.84716e-07
5.85556e-07
1.03665e-06
1.7165e-06
8.21941e-08
6.7013e-07
3.03533e-06
8.17814e-07
3.76399e-07
2.9644e-06
2.66066e-06
1.64802e-07
5.11418e-07
4.57667e-07
1.30842e-06
3.35408e-07
2.16336e-06
1.76428e-06
2.1823e-07
5.14821e-07
1.69463e-06
4.97142e-06
1.34695e-06
1.03477e-06
1.21494e-06
2.8078e-06
9.88879e-07
1.06527e-05
2.60885e-06
2.49276e-06
2.88496e-06
1.30183e-06
4.91975e-06
3.09764e-06
3.01712e-06
1.23426e-06
3.83381e-06
6.19095e-06
2.09151e-06
8.57504e-07
1.64875e-06
2.96716e-06
1.53883e-06
5.88633e-06
5.73839e-06
1.89361e-06
1.3797e-05
6.60648e-06
1.46441e-05
5.57674e-06
3.19637e-06
5.42085e-06
5.63256e-06
6.33258e-06
3.8845e-06
4.0737e-06
7.88918e-06
5.46044e-06
3.87671e-06
5.84507e-06
3.44377e-06
3.59347e-06
1.5192e-06
5.35972e-06
6.08188e-06
4.51126e-06
2.59313e-06
5.65023e-06
1.44606e-05
7.70291e-06
1.78433e-06
4.52507e-06
1.55741e-05
7.29207e-06
3.34354e-05
3.4968e-06
3.16665e-06
2.35324e-06
4.437e-06
6.18176e-06
6.28503e-06
1.07113e-05
1.22028e-05
7.16808e-06
2.23846e-05
4.59126e-06
4.1971e-06
1.57736e-05
1.16632e-05
2.51773e-05
1.21034e-05
1.14669e-05
1.47062e-05
2.0256e-05
2.60195e-05
1.55387e-05
1.41978e-05
5.6003e-06
1.89411e-06
4.88294e-06
4.29086e-06
1.45838e-05
1.37013e-05
7.02825e-06
1.49507e-05
2.93553e-05
1.63148e-05
1.63057e-05
7.58536e-06
1.14367e-05
4.78044e-06
6.21184e-06
5.41464e-06
2.61871e-05
3.92846e-05
2.25553e-05
1.36747e-05
1.07657e-05
7.59838e-06
7.96261e-06
5.63294e-06
9.59814e-06
4.17581e-06
3.20091e-06
4.47067e-06
1.32735e-05
5.62135e-06
5.3962e-06
1.00839e-05
8.19003e-06
6.23838e-06
4.6724e-06
1.49847e-05
1.19928e-05
2.93522e-06
5.46132e-06
3.81047e-05
8.77929e-05
7.08791e-05
3.90172e-05
1.22232e-05
7.66277e-06
4.80616e-06
3.85829e-06
3.26822e-06
2.13488e-05
2.17918e-05
7.43354e-06
3.60956e-06
5.04762e-06
4.22032e-06
5.85228e-06
1.37347e-05
1.0331e-05
5.41785e-06
5.26496e-06
5.97573e-06
1.04109e-05
9.93179e-06
3.22303e-05
4.38479e-05
9.16446e-06
4.66568e-06
1.25351e-05
5.85604e-06
6.52611e-06
3.40142e-06
1.89802e-09
1.0028e-09
2.78012e-09
3.92823e-10
7.7556e-09
2.49638e-08
1.12994e-08
1.1554e-08
1.58725e-08
1.84196e-08
1.21157e-08
9.33423e-09
5.13052e-09
8.71696e-10
7.85105e-10
1.75065e-09
6.93363e-09
2.56052e-08
2.90815e-08
1.34519e-08
7.58874e-09
5.90889e-09
9.83729e-09
2.73984e-09
2.39905e-08
4.47117e-08
3.50288e-08
4.0512e-08
7.29926e-08
7.75524e-08
4.28298e-08
2.43315e-08
1.02406e-08
2.42633e-09
3.21427e-09
7.82929e-09
2.49979e-08
8.45174e-08
7.9352e-08
2.12513e-08
4.23837e-08
3.59784e-08
1.03715e-07
3.81901e-08
1.87371e-08
5.94933e-08
1.40556e-07
1.97496e-07
2.52171e-07
4.88371e-07
2.91125e-07
9.38023e-08
4.34837e-08
2.86149e-08
1.40962e-08
1.41302e-08
1.72218e-07
3.95985e-07
2.75526e-07
7.87485e-08
6.01519e-08
1.2208e-07
2.58121e-07
2.15173e-06
8.55514e-07
1.19966e-06
2.94249e-06
1.02682e-06
1.87575e-06
2.68836e-06
2.43705e-06
1.30488e-06
3.15311e-07
2.0325e-07
2.00187e-07
9.28442e-08
2.29682e-07
8.52138e-07
2.76388e-06
1.11821e-06
1.3843e-06
3.80191e-07
6.68956e-07
2.30352e-06
1.7161e-06
1.57194e-06
1.05204e-05
1.41692e-05
1.05273e-06
5.3854e-06
9.07632e-06
7.0505e-06
3.24107e-06
6.78274e-07
1.20221e-06
5.44138e-07
1.78423e-06
1.13642e-06
2.86732e-06
4.06461e-06
3.70963e-06
1.47122e-06
9.68575e-07
1.25987e-06
3.40235e-06
7.51894e-06
1.47825e-05
1.2912e-05
4.24265e-06
2.5311e-06
1.45901e-05
3.19884e-05
3.23951e-05
1.63859e-05
5.11333e-06
2.73363e-06
6.64251e-06
9.28299e-06
5.75132e-06
1.34185e-06
2.99057e-06
1.147e-06
9.24235e-07
5.15566e-06
1.04968e-05
2.42376e-05
1.67733e-05
7.30348e-06
7.63553e-06
3.85737e-06
1.7547e-06
2.08183e-05
3.18114e-05
2.52195e-05
5.77835e-06
3.30191e-06
2.91442e-06
1.23192e-05
1.85151e-05
5.01474e-06
1.3953e-05
7.01603e-06
3.1369e-06
1.02192e-05
1.44174e-05
9.93133e-06
2.59301e-05
1.97652e-05
6.05154e-06
6.05803e-06
3.14196e-06
3.22439e-06
2.82039e-06
2.03961e-06
4.7622e-06
3.78583e-06
1.95043e-06
2.0874e-06
5.73006e-06
8.1088e-06
1.43017e-05
8.78976e-06
1.21763e-05
9.78999e-06
1.1725e-05
7.33431e-06
6.05824e-06
1.12959e-05
6.68021e-06
6.75171e-06
1.91514e-06
5.64844e-06
6.31085e-06
3.21707e-06
2.51601e-06
3.27401e-06
3.36168e-06
3.00512e-06
7.7791e-06
1.12859e-05
1.87195e-05
6.13424e-06
1.88958e-05
1.53547e-05
8.22251e-06
5.06861e-06
6.59844e-06
9.03877e-06
3.74874e-06
7.44025e-06
6.05895e-06
1.96569e-05
8.69784e-06
7.94397e-06
1.62614e-06
2.60144e-06
4.3555e-06
5.28817e-06
4.4983e-06
3.85945e-06
1.10805e-05
1.80468e-05
2.47636e-05
2.30232e-05
1.17715e-05
6.23645e-06
4.55667e-06
1.28727e-05
9.24783e-06
1.60549e-05
4.54139e-06
5.67182e-06
6.13132e-06
5.59279e-06
5.46229e-06
1.05274e-05
4.35126e-06
4.7137e-06
4.95331e-06
1.78306e-05
4.89025e-05
2.85507e-05
5.31409e-06
6.83511e-06
4.64803e-06
2.36274e-05
1.36312e-05
1.69347e-05
1.32747e-05
7.86071e-06
1.7915e-05
1.04261e-05
8.55163e-06
1.60047e-05
1.53452e-05
4.97223e-06
4.85713e-06
1.23212e-05
2.12956e-05
2.71154e-05
6.73921e-09
5.4281e-09
2.43421e-08
8.4937e-10
2.60223e-09
2.53423e-08
4.87496e-08
7.32376e-09
1.25248e-09
1.38216e-09
3.18682e-09
3.79537e-09
6.01031e-09
2.55799e-09
5.69059e-10
1.34797e-09
7.18736e-09
1.71347e-08
2.48362e-08
3.05136e-08
2.07086e-08
5.25358e-08
7.56798e-08
7.36563e-09
1.85715e-08
5.94628e-08
9.73095e-08
1.56965e-08
7.49369e-09
9.29896e-09
1.95299e-08
2.29289e-08
1.76163e-08
8.1e-09
1.29759e-09
9.59172e-09
2.83177e-08
4.70796e-08
4.51227e-08
5.99406e-08
1.34511e-07
3.7736e-08
3.13523e-07
1.77007e-07
4.52297e-08
1.60995e-07
4.5536e-07
6.5332e-08
6.02477e-08
1.475e-07
2.64624e-07
3.76838e-07
2.95227e-07
1.16003e-07
2.61553e-08
1.51233e-09
1.32579e-07
5.56997e-07
1.09716e-07
6.92512e-08
3.05468e-07
1.62805e-07
2.18858e-06
7.15735e-06
5.33393e-06
4.08823e-06
6.3233e-06
1.22642e-06
1.35271e-07
4.8016e-07
1.64114e-06
2.53493e-06
1.157e-06
5.93223e-07
5.27726e-07
8.52927e-08
4.74479e-07
3.35674e-06
4.98312e-06
1.45523e-06
3.81035e-06
9.58441e-07
2.34515e-06
8.63739e-06
7.73261e-06
6.38535e-06
2.02017e-05
2.03682e-05
1.9602e-06
7.89917e-07
3.18357e-06
5.48943e-06
4.23997e-06
4.79585e-06
4.31791e-06
1.09268e-06
6.40509e-07
7.60341e-06
1.05392e-05
1.40226e-05
1.65353e-05
6.47404e-06
1.68828e-06
9.75189e-06
6.30306e-06
1.1396e-05
1.61083e-05
2.01421e-05
1.57951e-05
9.56093e-06
2.39601e-06
1.90171e-05
2.26352e-05
2.14698e-05
2.23537e-05
1.05501e-05
2.80052e-06
3.76615e-06
3.47996e-06
1.60291e-05
1.14349e-05
4.83282e-06
9.39032e-07
1.06236e-05
2.55515e-05
4.70881e-05
9.00005e-06
5.47977e-06
1.05132e-05
1.75699e-05
1.54203e-06
1.7075e-05
3.58032e-05
2.22984e-05
1.70445e-05
1.13602e-05
4.87369e-06
3.42025e-06
5.97249e-06
2.92065e-06
5.26108e-06
1.33895e-05
3.66234e-06
3.90441e-06
4.43893e-05
3.51177e-05
7.14762e-05
1.81006e-05
2.88448e-06
5.27189e-06
4.46006e-06
4.84594e-06
1.01448e-05
6.04891e-06
1.01923e-05
7.33859e-06
5.37882e-06
2.47578e-06
3.02532e-06
4.17441e-06
1.7461e-05
5.09524e-06
9.27764e-06
1.51391e-05
3.24081e-05
6.26899e-06
9.63314e-06
1.48417e-05
5.15165e-06
8.21788e-06
1.66886e-05
5.56425e-06
7.12798e-06
2.72179e-06
3.88504e-06
4.1904e-06
3.65258e-06
3.19693e-06
7.77682e-06
1.40176e-05
1.26986e-05
5.38118e-06
1.29934e-05
9.96671e-06
1.06197e-05
7.17197e-06
6.81892e-06
7.54664e-06
5.83708e-06
1.33036e-05
1.22426e-05
1.08895e-05
6.06469e-06
5.75457e-06
1.25247e-06
3.79717e-06
3.38702e-06
9.49611e-06
1.40809e-05
2.29117e-06
6.81483e-06
8.43388e-06
9.82624e-06
1.60306e-05
9.11391e-06
4.22038e-06
5.79553e-06
1.07856e-05
1.79369e-05
3.36263e-05
4.05828e-06
4.20434e-06
7.53672e-06
4.16561e-06
2.58045e-06
7.85033e-06
7.18336e-06
5.01332e-06
4.4417e-06
1.00127e-05
1.98368e-05
1.91951e-05
3.65695e-06
3.52656e-06
4.1237e-06
2.35117e-05
8.7491e-06
1.08231e-05
6.21124e-06
8.76041e-06
1.73283e-05
1.38393e-05
7.14649e-06
1.07986e-05
3.04057e-06
2.29492e-06
1.86726e-06
3.23889e-06
1.03031e-05
9.85697e-06
8.97289e-09
5.64555e-08
3.41792e-07
7.60727e-08
1.1292e-07
3.36271e-08
6.23577e-09
4.02925e-08
5.58437e-08
1.93916e-08
6.23355e-09
7.6283e-09
7.07999e-09
4.6049e-10
2.66068e-09
2.24609e-09
2.54216e-09
1.62703e-08
1.26957e-08
6.50539e-09
5.32783e-08
2.06774e-07
6.98888e-07
1.50803e-07
3.54652e-07
1.09498e-07
1.80896e-08
7.2028e-08
1.13309e-07
2.60198e-08
1.83117e-08
2.38908e-08
2.01708e-08
1.7691e-09
1.24229e-08
1.92352e-08
6.59843e-09
4.31478e-08
3.92998e-08
2.18102e-08
2.60489e-07
1.74823e-06
1.09348e-06
1.07929e-06
7.7278e-06
5.6772e-06
2.09247e-07
3.3847e-07
2.39088e-07
1.11086e-07
6.71461e-08
8.8773e-08
8.76453e-08
1.10203e-08
1.33576e-07
5.44047e-07
4.2097e-07
1.924e-07
2.20369e-07
2.11064e-07
3.86177e-06
4.28819e-06
6.29723e-06
3.76888e-06
1.49089e-05
3.36201e-05
1.37714e-05
6.46425e-06
1.16347e-05
2.81132e-06
1.96037e-06
1.39198e-06
1.4303e-06
7.36247e-07
4.9806e-07
7.91012e-07
1.53104e-06
5.39624e-06
5.00592e-06
2.89378e-06
4.80759e-06
9.18171e-06
5.02531e-06
4.10691e-06
1.95487e-06
9.29866e-06
3.2017e-05
2.56159e-05
1.20089e-05
1.05337e-05
9.75906e-06
4.75859e-06
1.86604e-06
2.7742e-06
4.51205e-06
3.426e-06
2.16367e-06
3.59283e-06
4.56481e-06
3.42298e-06
3.71527e-06
4.3773e-06
7.33725e-06
4.41306e-06
5.03163e-06
4.44106e-06
8.12334e-06
1.01777e-05
6.0341e-06
7.91354e-06
1.70175e-05
9.15853e-06
8.17884e-06
3.74128e-06
5.61608e-06
7.63122e-06
4.40142e-06
7.89517e-06
4.26185e-06
3.3687e-06
3.43113e-06
4.87018e-06
2.16485e-06
2.87465e-06
1.23191e-05
1.54778e-05
7.07806e-06
6.96623e-06
5.25031e-06
4.79292e-06
1.61371e-05
1.20477e-05
9.20198e-06
4.43017e-06
2.95401e-06
4.74131e-06
5.94965e-06
9.00811e-06
1.2232e-05
4.39315e-06
3.10992e-06
1.08961e-05
2.28725e-05
3.25961e-06
8.77079e-06
3.93383e-05
1.60242e-05
4.60158e-06
7.47825e-06
3.54483e-06
5.59448e-06
4.65217e-06
5.34305e-06
1.49096e-05
1.9332e-05
3.80736e-06
1.91048e-06
3.3781e-06
5.67303e-06
8.08727e-06
5.21552e-06
5.87701e-06
7.16809e-06
7.73627e-06
2.50086e-05
1.85448e-05
2.28174e-05
4.92972e-06
3.25294e-06
6.46834e-06
6.64025e-06
2.63624e-06
1.06578e-05
1.42968e-05
3.01938e-05
1.79222e-05
3.52793e-06
9.23057e-06
7.04774e-06
1.17239e-05
3.94609e-06
7.08893e-06
3.86292e-06
4.66424e-06
9.76616e-06
7.69157e-06
9.83812e-06
1.94368e-05
4.85596e-06
2.62428e-06
7.2172e-06
4.55063e-06
2.49473e-05
2.32749e-05
6.11507e-06
2.34679e-05
4.84517e-06
3.80828e-06
7.28626e-06
7.49242e-06
3.00346e-05
4.06849e-06
1.30344e-05
2.0064e-05
2.36627e-05
4.57898e-06
5.76481e-06
3.11338e-06
2.10858e-06
5.70553e-06
8.10788e-06
5.43302e-06
9.0764e-06
5.0139e-06
6.97414e-06
4.29142e-06
7.6222e-06
1.62775e-05
5.73544e-06
3.0111e-05
9.89717e-06
1.12535e-05
2.58782e-06
8.39605e-06
4.43547e-06
3.48407e-06
2.59811e-06
4.95565e-06
7.19706e-06
7.71707e-06
8.38131e-06
2.14688e-05
1.99263e-05
2.27266e-05
1.39746e-05
4.06262e-06
5.86746e-06
3.51653e-06
4.4958e-06
9.02076e-06
1.069e-08
1.36083e-08
5.33033e-09
9.4614e-08
1.59674e-07
3.66275e-08
1.78468e-07
2.10791e-07
6.33151e-08
4.82254e-09
2.53394e-09
1.80164e-08
1.4372e-08
1.20181e-09
1.00524e-08
3.60081e-09
1.0174e-08
1.72949e-08
8.31079e-09
1.92162e-09
1.72299e-08
2.05413e-08
3.59878e-08
2.05649e-07
3.34185e-07
1.17142e-07
5.53764e-07
7.03379e-07
1.07454e-07
9.81833e-09
1.78938e-08
6.37387e-08
4.86977e-08
4.98016e-09
4.03423e-08
1.74738e-08
4.26963e-08
4.16572e-08
2.15801e-08
4.15455e-09
6.25853e-08
8.34709e-07
1.73242e-06
3.41973e-07
1.0344e-06
9.89422e-07
1.94561e-06
3.10863e-06
2.30393e-06
3.96186e-07
2.06303e-07
2.40396e-07
2.60731e-07
1.04034e-07
5.51852e-08
1.03901e-07
4.43771e-07
1.64584e-07
5.99456e-08
7.63197e-09
7.85393e-07
5.645e-07
4.64167e-06
1.04017e-05
1.60052e-06
9.12033e-06
7.05945e-06
6.84167e-06
6.5036e-06
5.38381e-06
6.17527e-06
6.9446e-06
7.9677e-06
5.64502e-06
1.03577e-06
7.68112e-07
2.69551e-06
3.99301e-06
4.296e-07
6.82348e-07
3.43947e-06
3.75299e-06
1.24681e-06
6.51475e-06
3.37801e-06
6.56718e-06
1.3668e-05
2.40954e-05
1.05274e-05
1.26824e-05
7.36428e-06
7.40492e-06
5.32504e-06
5.42172e-06
5.29956e-06
2.88106e-06
8.60985e-06
7.59065e-06
3.19463e-06
1.63304e-06
3.62855e-06
1.79681e-06
1.45428e-06
1.79524e-06
5.92828e-06
5.39649e-06
4.87601e-06
9.85989e-06
1.01663e-05
1.76406e-05
2.61488e-05
9.90532e-06
1.72316e-05
4.32717e-06
5.4319e-06
3.857e-06
1.92836e-06
4.23472e-06
4.58751e-06
5.01716e-06
5.18194e-06
5.5654e-06
3.18437e-06
9.20288e-06
1.00272e-05
5.387e-06
4.89135e-06
2.1869e-05
6.47031e-06
7.05372e-06
9.5832e-06
1.82822e-05
1.42716e-05
5.85208e-06
3.30037e-06
4.5241e-06
7.63969e-06
9.29443e-06
5.00894e-06
5.01527e-06
8.17856e-06
5.52646e-06
3.741e-06
5.57991e-06
8.10282e-06
8.47228e-06
3.30019e-06
1.05399e-05
1.35467e-05
6.75398e-06
6.12866e-06
1.647e-05
1.23507e-05
6.61649e-06
2.05016e-05
3.63073e-06
1.31999e-05
6.05501e-06
5.51766e-06
4.36262e-06
1.51728e-05
2.60095e-05
7.20911e-06
6.36435e-06
8.83407e-06
1.02771e-05
1.86206e-05
3.94701e-06
4.88499e-06
7.15286e-06
4.5088e-06
5.40426e-06
1.02114e-05
1.46017e-05
1.19556e-05
4.18486e-06
1.56601e-05
1.07781e-05
7.40392e-06
1.10307e-05
1.34111e-05
2.27981e-05
1.70722e-05
1.08691e-05
9.81719e-06
7.76869e-06
1.49742e-05
1.34417e-05
2.60279e-06
8.23256e-06
7.6127e-06
6.2169e-06
1.52269e-05
2.36702e-05
1.48745e-05
1.14528e-05
4.094e-06
1.54947e-05
1.05485e-05
8.71387e-06
3.73975e-06
3.14302e-05
2.25173e-05
7.28398e-06
1.6341e-05
7.48116e-07
1.60698e-06
6.56693e-06
3.07799e-06
3.39534e-06
1.06556e-05
1.8243e-05
2.97909e-05
1.67804e-05
1.02018e-05
3.41322e-06
6.29626e-06
6.89664e-06
7.36703e-06
5.96312e-06
4.89105e-06
3.71249e-06
2.75941e-06
3.33215e-06
2.64934e-06
2.27418e-06
1.95469e-06
1.85003e-06
8.87227e-06
1.25976e-05
1.43871e-05
6.29016e-06
4.33075e-06
6.0992e-06
8.39613e-06
1.33243e-05
1.14693e-05
7.97549e-06
5.41744e-06
1.19006e-05
1.55029e-08
4.35534e-08
2.42384e-08
6.65072e-08
6.0651e-08
8.28317e-09
2.10872e-08
1.69453e-07
2.07458e-07
1.36088e-08
5.36646e-09
3.9667e-09
6.45327e-09
6.52246e-09
5.24038e-09
2.06981e-08
1.30866e-08
8.70883e-08
3.69705e-08
7.16028e-09
6.62906e-08
2.16666e-07
1.04625e-07
1.59312e-07
8.26433e-08
2.93458e-08
8.41322e-08
3.45289e-07
2.54751e-07
3.90178e-08
1.74644e-08
1.23736e-08
1.61089e-08
1.75269e-08
1.46235e-08
5.59206e-08
7.35336e-08
1.72027e-07
8.83911e-08
2.55242e-08
2.1333e-07
2.26363e-06
2.02446e-06
4.45357e-07
4.89884e-07
4.09069e-07
8.42117e-07
9.11074e-07
8.20787e-07
7.97504e-08
2.09657e-07
9.70134e-08
4.31336e-08
1.10988e-07
1.58107e-07
2.05157e-07
1.68688e-07
5.53827e-07
1.02258e-07
4.86595e-08
2.6285e-07
2.02857e-06
5.67899e-06
5.46522e-06
1.87497e-06
3.51592e-06
1.6071e-06
1.61348e-06
1.1269e-05
2.7953e-06
3.47694e-06
5.8789e-06
1.42034e-05
3.94066e-06
1.48827e-06
1.09587e-06
9.22937e-07
1.49646e-06
2.85406e-06
2.38124e-07
7.89733e-07
7.2343e-07
8.68747e-06
9.62249e-06
2.83021e-06
1.74211e-06
3.07706e-06
4.24611e-06
4.67919e-05
3.51258e-05
7.59246e-06
6.26857e-06
1.25735e-05
1.09638e-05
7.12016e-06
2.85875e-06
8.49688e-06
1.13354e-05
6.93616e-06
4.78284e-06
3.63036e-06
1.59165e-06
1.71322e-06
1.12932e-06
8.47086e-06
7.83166e-06
8.48077e-06
1.2326e-05
5.15807e-05
8.27139e-05
5.80449e-05
6.27002e-06
5.70405e-06
8.32771e-06
6.47545e-06
3.19966e-06
3.44586e-06
1.24579e-05
1.8531e-05
4.37196e-06
6.60267e-06
5.48458e-06
4.95442e-06
5.34291e-06
7.7034e-06
1.25615e-05
7.91664e-06
1.11851e-05
9.48297e-06
1.4902e-05
4.28645e-05
4.32928e-05
1.72929e-05
5.39609e-06
1.19897e-05
6.5508e-06
6.16286e-06
5.67475e-06
1.29207e-05
4.46509e-06
9.20609e-06
4.2641e-06
7.34708e-06
7.33972e-06
1.05023e-05
2.36928e-05
6.7359e-06
1.46345e-05
4.38973e-06
7.73843e-06
7.68166e-06
4.44987e-05
5.34074e-05
9.1599e-06
6.08822e-06
1.69338e-05
5.11854e-06
2.66244e-06
4.2894e-06
2.62882e-06
3.96559e-05
1.82108e-05
7.79542e-06
1.07777e-05
1.31443e-05
1.2551e-05
1.98401e-05
7.18501e-06
3.2344e-06
6.44779e-06
4.57735e-06
1.40316e-05
2.76607e-05
1.09787e-05
9.45204e-06
6.03845e-06
2.75921e-05
2.10042e-05
2.70578e-06
9.51509e-06
4.9081e-06
8.35705e-06
1.26483e-05
1.4397e-05
7.66238e-06
2.02805e-06
4.1497e-06
5.57342e-06
2.58801e-06
2.38626e-05
7.31731e-06
5.81802e-06
9.77031e-06
1.46039e-05
6.73198e-06
4.77294e-06
2.59788e-05
3.63e-05
1.26259e-05
1.76457e-05
2.80374e-06
1.14667e-05
1.64536e-05
7.79053e-06
4.9418e-06
3.4176e-06
1.50109e-06
4.16101e-06
5.78902e-06
1.4767e-05
1.89447e-05
1.70558e-05
1.0331e-05
4.92248e-06
4.95599e-06
5.94525e-06
1.10974e-05
9.29495e-06
6.18181e-06
8.14339e-06
4.7519e-06
3.4798e-06
9.49403e-06
3.47455e-06
4.07166e-06
2.26126e-06
2.3197e-06
2.52275e-06
1.44297e-05
3.29243e-05
2.42766e-05
4.77321e-06
2.37671e-06
4.19684e-06
8.64131e-06
9.9935e-06
6.13e-06
8.12346e-06
1.25256e-05
1.50384e-05
1.05474e-08
2.85725e-08
2.15593e-08
4.69411e-08
8.49573e-08
5.74611e-09
1.282e-08
8.05872e-08
4.94941e-08
7.85325e-09
2.72163e-10
1.06716e-09
4.01188e-09
8.90775e-09
2.18174e-09
1.81114e-09
1.46661e-08
4.84798e-08
1.71818e-08
5.04798e-09
8.22448e-08
1.31231e-07
4.83993e-08
9.53989e-08
3.22618e-08
5.83854e-08
6.38668e-08
3.25575e-07
2.48421e-08
9.35283e-09
1.48129e-09
5.01867e-08
7.36653e-08
2.67978e-08
7.32517e-09
4.68109e-09
6.12689e-08
1.01935e-07
4.53315e-08
4.63487e-08
7.68249e-07
1.54739e-07
9.96513e-08
7.05935e-07
1.8526e-06
1.82698e-07
3.65378e-07
3.94279e-07
1.69885e-07
2.35441e-08
3.86022e-08
2.59844e-07
4.55612e-07