/*--------------------------------*- C++ -*----------------------------------*\
| =========                 |                                                 |
| \\      /  F ield         | OpenFOAM: The Open Source CFD Toolbox           |
|  \\    /   O peration     | Version:  5.0                                   |
|   \\  /    A nd           | Web:      www.OpenFOAM.org                      |
|    \\/     M anipulation  |                                                 |
\*---------------------------------------------------------------------------*/
FoamFile
{
    version     2.0;
    format      ascii;
    class       volScalarField;
    location    "0";
    object      p;
}
// * * * * * * * * * * * * * * * * * * * * * * * * * * * * * * * * * * * * * //

dimensions      [0 2 -2 0 0 0 0];

internalField   nonuniform List<scalar> 
7200
(
3.90086e-05
0.000142131
0.000207706
0.000198478
0.00012308
0.000195215
0.00025501
0.000180115
0.00010865
4.16289e-05
5.27957e-05
0.000167134
0.000213929
0.000192528
0.000250478
0.000272104
0.000268482
0.000246339
0.000174037
3.00069e-05
3.50971e-05
0.000140915
0.000207156
0.00016354
0.00013072
0.000195073
0.000256484
0.000180823
8.00922e-05
2.75582e-05
5.10883e-05
0.000198598
0.000212624
0.000190992
0.00025056
0.000272807
0.000266123
0.000244843
0.000171581
-6.64004e-06
6.51543e-05
0.000134149
0.000201532
0.000195631
0.000127892
0.000239714
0.000240042
0.000184153
7.89929e-05
2.19724e-05
8.73225e-05
0.000187256
0.000195514
0.000197191
0.000250672
0.000276334
0.00027533
0.000219344
9.91877e-05
-2.94462e-05
2.57972e-05
0.000142685
0.000190655
0.000153867
0.000122967
0.00018924
0.000273242
0.000164698
7.95976e-05
6.49405e-06
3.09567e-05
0.000165591
0.000158218
0.000140509
0.000240325
0.00027818
0.000289261
0.00025592
0.000196835
-1.54899e-05
-1.56215e-05
8.56969e-05
0.000168229
0.00016644
0.000115185
0.000169258
0.000261318
0.000208205
7.99896e-05
1.67224e-05
3.36664e-05
0.000201745
0.000155805
9.5167e-05
0.000220774
0.000267954
0.00028601
0.000246678
0.00019623
3.04748e-05
-5.12692e-05
9.58209e-05
0.000134051
0.000155816
0.000109045
0.000147571
0.000213139
0.000169064
8.83163e-05
1.98563e-05
5.99147e-05
0.000291996
0.000221029
8.63717e-05
0.000181861
0.000248699
0.000292676
0.000254963
0.000254623
7.96337e-06
-2.82581e-05
7.3967e-05
0.000136116
0.00013671
0.000110543
0.000140377
0.000195854
0.000142257
0.00011999
4.02336e-05
8.83529e-05
0.000330954
0.000308043
0.000137177
0.000144144
0.00021972
0.000307703
0.000283368
0.000269758
0.000200469
6.1225e-05
8.82099e-05
0.000123206
0.000119899
0.00010893
0.000139238
0.000201053
0.000161892
9.22135e-05
5.75664e-05
0.000114748
0.000291558
0.000293216
0.000190162
0.000137825
0.000221116
0.00029331
0.000277543
0.000246732
0.000225121
0.000140257
0.000135989
0.000146436
0.000105422
8.3748e-05
0.000127244
0.000212697
0.000165444
0.000112709
7.17523e-05
0.000175326
0.000249137
0.000282883
0.000214393
0.000134693
0.000206936
0.000278612
0.000287903
0.000223927
0.00019725
0.000153472
0.000153243
0.00014615
0.000108766
6.33054e-05
7.52548e-05
0.000151013
0.000187808
0.000156959
0.000113038
0.000150108
0.000232214
0.000276517
0.000193248
0.000120516
0.000158805
0.000258852
0.000262056
0.000196071
0.000151218
0.000137499
0.000145835
0.000140397
0.000103091
8.57573e-05
7.34823e-05
9.02973e-05
0.000142826
0.000164488
0.000155515
0.000133116
0.000185786
0.000264521
0.000124509
7.02974e-05
0.000123536
0.000238336
0.000236838
0.000207368
0.000162567
0.000102986
0.000103273
0.000129646
0.000134297
0.000119427
0.000105706
0.000114388
0.000147182
0.000177044
0.000170681
0.000156304
0.000161953
0.000208766
0.000187687
9.90529e-05
0.00014142
0.000203347
0.000209274
0.000213735
0.000176455
6.52159e-05
7.04929e-05
0.000135093
0.000169112
0.000121085
0.000139377
0.000140955
0.000102774
9.53975e-05
7.03381e-05
9.68893e-05
0.000215948
0.000289141
0.000275222
0.000290066
0.000340987
0.000347735
0.000298006
0.000259359
0.000164725
0.000162118
0.000122072
0.000133385
0.000149835
0.000123167
0.00013889
0.00014051
0.000100056
9.52106e-05
9.51823e-05
9.57278e-05
0.000258191
0.000289355
0.000269733
0.000290329
0.000340654
0.000253322
0.000218855
0.000222896
0.000164131
3.37071e-05
7.38207e-05
0.000141941
0.000145074
0.000108648
0.00011246
7.76651e-05
0.000100259
8.5119e-05
9.96508e-05
0.000158281
0.000247374
0.000276428
0.000268027
0.000318142
0.000340712
0.000256655
0.000221413
0.000220597
0.00024625
0.000143624
7.59147e-05
9.8815e-05
0.000111563
8.71848e-05
6.99229e-05
5.40837e-05
6.49497e-05
8.98614e-05
5.58731e-05
6.85289e-05
0.000225671
0.000270106
0.000250943
0.000257637
0.000321323
0.000232071
0.000334789
0.000206362
0.0002297
0.000147048
1.57168e-06
6.59281e-05
9.38289e-05
6.75319e-05
7.14163e-05
6.73601e-05
9.21531e-05
9.89269e-05
6.48916e-05
4.09133e-05
0.000193513
0.000240477
0.000232984
0.000243293
0.000296418
0.000231712
0.000236271
0.000242654
0.000118383
1.35716e-06
-3.72989e-06
5.0916e-05
5.11332e-05
1.20775e-05
5.34165e-06
-2.78483e-05
7.6713e-05
9.80767e-05
6.56911e-05
5.16964e-05
9.48928e-05
0.000218521
0.000195658
0.000236764
0.000260837
0.000289728
0.000365445
0.000312434
0.000222206
0.000209509
0.000100578
8.06049e-05
7.3379e-05
5.08929e-05
2.13263e-05
6.55096e-05
5.32805e-05
0.000102672
7.64431e-05
5.26241e-05
7.5877e-05
0.000242397
0.000241028
0.00019528
0.000233909
0.000223567
0.000284799
0.00037467
0.000319089
0.00013714
6.94542e-05
7.90892e-05
0.000103505
8.01719e-05
0.000112924
0.000125564
5.29833e-05
8.50551e-05
5.25599e-05
5.69533e-05
7.22377e-05
0.000200097
0.000260123
0.000144003
0.000214519
0.000262227
0.000309783
0.000355694
0.000342421
0.000213864
0.000160807
0.000117503
3.85248e-05
1.67438e-05
0.000118796
0.000163789
0.000119325
6.94326e-05
8.69756e-05
0.000114038
0.00011615
0.000205293
0.00021133
0.000122987
0.000168313
0.000202221
0.00027366
0.00026614
0.00032013
0.000253786
0.000224426
0.000183288
5.25283e-05
3.24138e-05
7.42278e-05
0.000116391
0.000119484
0.000119922
0.000103292
0.000139544
0.000193505
0.000187037
0.000160299
0.000129159
0.000160181
0.00021422
0.000209001
0.000216607
0.000254654
0.000217904
0.000215269
0.000196226
9.28286e-05
8.29467e-05
7.26128e-05
8.77439e-05
0.000116213
0.000147696
0.000138119
0.000139507
0.000191097
0.000194267
0.000165852
0.000129722
0.000163922
0.00023033
0.000216788
0.000235562
0.000214893
0.000176257
0.000149307
0.000139989
0.000139575
0.00013757
0.000120561
0.000131056
0.000137423
0.000156786
0.000142838
0.000134375
0.000145113
0.000178739
0.000167849
0.000139962
0.000160723
0.000199027
0.000219607
0.000222923
0.000210184
0.00047405
0.00031219
0.000195889
0.000177206
0.000135605
9.61729e-05
6.82088e-05
8.28106e-05
0.000125212
0.000138368
0.000162014
0.000223446
0.000271085
0.000207073
0.000150804
0.000101536
4.6121e-05
0.000107833
0.000208196
0.000405948
0.000478019
0.000254171
0.000196373
0.000164927
0.000135076
9.56961e-05
6.49037e-05
8.21192e-05
0.000132358
0.000137692
0.000161322
0.000253387
0.000257472
0.000176508
0.000136974
9.92363e-05
5.54695e-05
0.000105011
0.000205091
0.000405287
0.000438636
0.000323741
0.000197418
0.000162945
0.000132046
9.30786e-05
6.43715e-05
8.05962e-05
0.000132402
0.000134955
0.000154449
0.000220583
0.000275122
0.000199248
0.000137037
8.91742e-05
4.37835e-05
9.42643e-05
0.000263359
0.000404992
0.000541984
0.000354935
0.000200437
0.000156577
0.000105582
7.34841e-05
5.56113e-05
8.1027e-05
0.000141225
0.000134812
0.000135533
0.0002205
0.000247283
0.000170828
8.49787e-05
6.84605e-05
2.33077e-05
8.08318e-05
0.000163602
0.000403435
0.000562917
0.000299938
0.000204316
0.000163326
0.000102682
7.52388e-05
5.66723e-05
0.000107089
0.000136466
0.000140273
0.000126776
0.000185684
0.000226555
8.47313e-05
4.94677e-05
7.36011e-05
4.55067e-05
8.05427e-05
0.00014725
0.000366026
0.000524596
0.000316013
0.000204011
0.000140132
9.62007e-05
7.89134e-05
5.23833e-05
5.37163e-05
9.72817e-05
0.000116152
0.000103659
0.000115945
0.000212152
5.02438e-05
2.05017e-05
7.48178e-05
8.30733e-05
8.93046e-05
0.000143835
0.000406494
0.000434417
0.000392034
0.000212507
0.00010743
8.63553e-05
0.000102086
4.90125e-05
4.21738e-06
6.93619e-06
8.62164e-05
7.18144e-05
6.8992e-05
0.000176812
0.000120542
3.25606e-05
7.13605e-05
9.92748e-05
0.000110277
0.000147923
0.000261604
0.000352908
0.000328054
0.000160796
6.92746e-05
5.63899e-05
0.000131825
0.000103114
9.93132e-06
-8.34757e-07
8.89667e-05
9.05206e-05
7.14349e-05
0.000142077
6.84959e-05
7.32336e-05
7.98707e-05
0.000117047
0.000126359
0.000176515
0.000295981
0.000307553
0.000296011
0.000240555
8.2543e-05
5.58384e-05
0.000107475
0.000141445
9.49829e-05
5.75496e-05
7.00539e-05
0.000136942
0.000148678
0.000126858
5.15556e-05
7.55229e-05
0.000136237
0.000151947
0.000148932
0.000168365
0.000269773
0.000269354
0.000248228
0.000233271
0.000131735
0.000106574
0.000117089
0.000123455
0.00014611
0.000142288
8.36664e-05
0.000100627
0.000174723
0.000139231
0.000116121
0.000121293
0.000168048
0.000169474
0.000164484
0.000178183
0.000206464
0.000227492
0.000219587
0.000218271
0.000154156
0.000101599
0.000109095
0.000141027
0.000161648
0.000183655
0.000174823
0.000139376
0.000143904
0.000153644
0.00015173
0.000155634
0.000175565
0.000203566
0.000206101
0.000205223
0.000187335
0.000203047
0.000192994
0.000179566
0.000159277
0.000146475
0.000134665
0.000150503
0.000178009
0.000195832
0.000179414
0.000133392
0.000145344
0.000158611
0.000148378
0.000139678
0.000170364
0.000210809
0.000218873
0.000215717
0.000199103
0.000425266
0.000268009
0.000178776
0.000193839
0.000163117
0.000107507
7.85013e-05
0.000117444
0.00016357
0.000165797
0.000165634
0.000197711
0.00021954
0.000155722
8.55855e-05
5.75887e-05
5.61624e-05
0.000158514
0.000305998
0.000464443
0.000370945
0.000268759
0.000178765
0.000193921
0.000162671
0.000107287
7.83035e-05
0.000117642
0.000168027
0.00016564
0.000172897
0.000197523
0.000203122
0.000155187
8.30316e-05
4.6687e-05
5.32256e-05
0.000209977
0.00030481
0.00046664
0.000436079
0.000272114
0.000178594
0.000191512
0.000136573
0.000106502
8.51029e-05
0.00011848
0.000168277
0.000159374
0.000167116
0.000212994
0.000202063
0.000113125
5.78523e-05
4.61965e-05
7.61237e-05
0.00015031
0.000300152
0.000475884
0.000398732
0.0002236
0.000177349
0.000196074
0.000162731
9.25796e-05
7.86719e-05
0.000151998
0.000173823
0.000162725
0.000143488
0.000195847
0.000197943
9.503e-05
4.84581e-05
3.83412e-05
7.08974e-05
0.000146976
0.000292839
0.000532446
0.000419488
0.000225476
0.000168307
0.000199857
0.000141059
0.00011794
9.00443e-05
0.000166384
0.000184054
0.000167027
0.000130314
0.000181635
0.000190866
9.36008e-05
4.97589e-05
5.0214e-05
3.66551e-05
9.86365e-05
0.000338555
0.000501847
0.000427369
0.000223359
0.000138489
0.000185849
0.00013855
0.000127202
9.29048e-05
0.000160864
0.000181826
0.000154483
0.000110182
0.000171164
0.000208289
8.9034e-05
4.89285e-05
6.87664e-05
2.20767e-05
7.31512e-05
0.000161938
0.000502115
0.00040786
0.000256638
9.38904e-05
0.000152597
0.000125619
0.000133107
6.09382e-05
0.000109907
0.000132572
0.000143067
0.000121267
0.000153978
0.000180275
0.00011268
5.32876e-05
6.25694e-05
5.25922e-05
3.16374e-05
9.46671e-05
0.000375877
0.000365018
0.000353744
7.96029e-05
8.98069e-05
0.000112862
0.000156269
6.8688e-05
4.88476e-05
7.17234e-05
0.000126026
0.000122178
0.000124684
0.000113965
5.55985e-05
8.50813e-05
8.83414e-05
8.71438e-05
6.01659e-05
8.57892e-05
0.000256307
0.000311215
0.000280044
0.000202217
0.000104669
0.000122078
0.000108493
0.000154329
0.000121547
8.10638e-05
8.09458e-05
0.000120571
0.00015241
8.18088e-05
3.01417e-05
0.000123252
0.000152714
0.000148164
0.000100082
8.37382e-05
0.000243528
0.000244013
0.00021966
0.000195018
0.000138687
0.000140882
0.000115659
0.000154775
0.000183805
0.000121782
6.20172e-05
6.13724e-05
0.000168061
0.000114011
8.87972e-05
0.000127461
0.000161084
0.00020678
0.000158181
0.000130108
0.000206994
0.000242736
0.000229339
0.000218916
0.000171788
0.000106191
0.000122415
0.000143919
0.000201061
0.000202169
0.000101258
7.59891e-05
0.000130585
0.000128638
0.000127862
0.000143845
0.000186452
0.00023315
0.000212941
0.000162266
0.000178218
0.000221106
0.000216502
0.000190129
0.000171361
0.000157135
0.000125011
0.000171251
0.000199404
0.000216815
0.000168663
0.000121618
0.000134065
0.000143522
0.000128602
0.000130923
0.000172685
0.000207657
0.000215409
0.000214963
0.000199398
0.000226754
0.000134244
0.000108896
0.000227624
0.000230448
0.000105388
6.65857e-05
0.000151183
0.000218364
0.000238642
0.000220804
0.000177788
0.000117493
0.000108238
0.000152555
0.000195581
0.000188258
0.000219566
0.00029102
0.000305184
0.000145274
0.000132978
0.000107134
0.000228361
0.000232338
0.000105247
8.9824e-05
0.000151571
0.000232313
0.000239181
0.000260956
0.000188413
8.8647e-05
0.000123003
0.000152903
0.000236314
0.000211096
0.000219412
0.000291577
0.000305403
0.000221192
0.000100262
0.000101246
0.000231743
0.000179026
4.73048e-05
4.63539e-05
0.000160265
0.000261067
0.000278922
0.000261757
0.000143002
8.38356e-05
9.7289e-05
0.00017827
0.000241613
0.000220366
0.000242469
0.000306506
0.000285237
0.000124688
6.49842e-05
8.96328e-05
0.000263977
0.000184873
9.82661e-05
2.64403e-05
0.000205114
0.000228552
0.000281201
0.000265382
0.000144638
9.63038e-05
9.37117e-05
0.000166581
0.00024838
0.000201858
0.000234929
0.000297403
0.000177188
0.000117964
9.0184e-05
0.000105516
0.00020845
0.000198944
8.15248e-05
7.93217e-07
0.000154553
0.00026389
0.000243563
0.000268497
0.000145205
0.00011453
0.00011751
0.00020295
0.000261513
0.000183318
0.00016407
0.000231288
0.000170255
0.000106559
8.06519e-05
0.00010449
0.000195703
0.000229594
9.45301e-05
-5.9868e-06
0.000206677
0.000230694
0.00023056
0.000246612
0.00015461
0.000121721
0.000118945
0.000215528
0.000265116
0.000200512
0.000155094
0.000229751
0.000120139
0.000172411
7.24801e-05
7.00387e-05
0.000223385
0.000183567
6.53551e-05
-6.18305e-07
0.000144131
0.000205332
0.000201124
0.000231454
0.000154076
4.34264e-05
9.4071e-05
0.000212625
0.000203338
0.000211609
0.000104404
0.000203686
0.00022386
0.000149257
0.00011198
6.10255e-05
0.00014785
0.000189657
0.000140251
4.08452e-05
-2.29217e-05
0.000179754
0.000202253
0.00019839
0.000152242
5.4267e-05
7.19714e-05
0.000196768
0.000200501
0.000147932
0.000116301
0.00016852
0.000172851
0.000208183
0.000179182
9.89489e-05
0.000119023
0.000187044
0.00011302
5.39019e-05
-3.51909e-05
9.66053e-06
0.000138286
0.000127283
0.000192731
0.000143052
8.61354e-05
0.000135102
0.000221127
0.000209331
0.000128236
7.93404e-05
0.000191527
0.00014954
0.000185374
0.000188744
0.000200735
0.000202198
0.000157534
8.65271e-05
5.92137e-05
-2.66186e-05
-3.47165e-05
4.95791e-05
0.000216575
0.00021152
9.89704e-05
0.000145449
0.000226627
0.000247648
0.000156356
8.6301e-05
0.000141269
0.000241748
0.000248219
0.000212538
0.000196168
0.000148616
0.000115309
0.000152678
0.000179074
0.000100971
-4.68894e-05
-0.000130465
-4.03356e-05
1.69153e-05
9.10516e-05
0.000153423
0.00021178
0.000259114
0.000234647
8.10064e-05
5.47649e-05
0.000205169
0.000220651
0.000198094
0.00019633
0.000192144
0.000120979
0.000136938
0.000208741
0.000211725
0.000180722
9.5399e-05
7.59446e-05
3.63992e-05
6.52182e-05
0.000153727
0.000193369
0.000214041
0.000213066
0.000202178
0.000188209
0.000123521
0.000144085
0.000136291
0.000180352
0.000159057
8.60224e-05
0.000129212
0.000153581
0.000235201
0.000326184
0.000326888
0.000251102
9.21055e-05
8.07164e-05
0.000179495
0.000253157
0.00025615
0.000190988
0.000132125
9.80927e-05
0.000122121
0.000138073
0.000151937
0.000180159
0.00012371
8.59428e-05
0.000131013
0.000169373
0.000284951
0.000326873
0.000327291
0.000251401
6.12505e-05
0.000117282
0.000214535
0.000266399
0.000257564
0.000165322
0.000131447
9.74069e-05
0.000115732
0.000139642
0.000136153
0.000185971
0.000122917
8.48375e-05
0.000136082
0.000163466
0.000233107
0.000330037
0.000326585
0.0002505
5.32838e-05
7.39e-05
0.00021645
0.00025791
0.000238972
0.000162672
0.000125671
8.83662e-05
0.000116715
0.000143283
0.000135007
0.000173662
0.000118304
6.99035e-05
0.000107351
0.00011865
0.0002262
0.000323955
0.000299185
0.000233133
5.3932e-05
5.46879e-05
0.000180794
0.000269994
0.000246518
0.000188259
0.00010779
6.03826e-05
0.000106179
0.00014273
0.000142229
0.00017715
0.00010251
4.51283e-05
6.33475e-05
9.67453e-05
0.000213086
0.00031022
0.00027883
0.000196772
1.26326e-05
8.68582e-05
0.000229646
0.000303946
0.000253973
0.000182501
7.35528e-05
4.73815e-05
0.000113646
0.000144434
0.000147287
0.000156051
8.45633e-05
-1.92907e-05
1.33726e-05
3.89914e-05
0.000285858
0.000318599
0.000276114
0.00016985
-3.92261e-05
-1.26388e-05
0.000167393
0.000309857
0.000311241
0.000177676
7.2591e-05
4.76636e-05
9.01896e-05
0.000149152
0.000146133
0.000156764
0.000118281
-8.33699e-05
-2.01834e-05
5.92024e-05
0.000269789
0.000324286
0.000295814
0.000191754
-8.13485e-05
-2.82219e-05
0.000215883
0.000346495
0.00033674
0.000125204
5.89624e-05
4.01781e-05
9.18646e-05
0.000168925
0.000149778
0.000122953
9.41248e-05
7.31027e-05
-3.5291e-06
-5.06437e-07
0.000238262
0.000299029
0.000298456
0.000132055
-2.10874e-05
9.67361e-06
0.000153207
0.00026491
0.000291264
0.000215033
9.29597e-05
4.59578e-05
0.000117233
0.000175663
0.000182985
0.000144906
0.000128757
0.00014658
9.50999e-05
6.31503e-05
0.000119447
0.000252735
0.000271244
0.000217566
7.63253e-05
3.86807e-05
0.000151094
0.000237255
0.000288371
0.000222571
0.000124991
8.08663e-05
0.000125989
0.000209037
0.000165871
0.000157259
0.000147382
0.000158224
0.0001205
8.07505e-05
0.000122052
0.000165586
0.000192367
0.000171638
9.25433e-05
9.02678e-05
0.000187644
0.000219722
0.000268263
0.000210598
0.000134806
0.000117128
0.000165134
0.00021862
0.000173177
0.000157919
0.000156706
0.000128966
0.000119389
0.000119385
0.000141945
0.000122781
0.000124908
0.000119882
9.98318e-05
0.000106353
0.000184201
0.000209399
0.000233881
0.000221376
0.000191274
0.00010964
0.000141338
0.000178788
0.000192445
0.00018063
0.000173802
0.000128523
0.000134722
0.000166829
0.000180047
0.000176199
0.000112593
0.000103595
0.000113043
0.000100237
0.00014337
0.000196537
0.000219063
0.000214726
0.000194046
0.000157429
0.00013875
0.000157591
0.000150963
0.000185057
0.000123012
2.59555e-05
0.000144439
0.000176128
0.00024645
0.000362776
0.000374585
0.000310933
0.000136147
9.25282e-05
0.000171287
0.000228244
0.000230939
0.000147392
8.12672e-05
7.88176e-05
0.000137517
0.000148805
0.000150196
0.000184941
7.31425e-05
2.37808e-05
0.000146581
0.000177521
0.000310948
0.000363414
0.000371561
0.000312167
9.37076e-05
9.13587e-05
0.00017093
0.000239918
0.000232121
0.000113969
7.97857e-05
7.60476e-05
0.000130803
0.000159005
0.000145659
0.000183305
0.000123336
1.66445e-05
0.000152471
0.00018376
0.000310541
0.000366759
0.000375665
0.000241361
0.000129611
8.53855e-05
0.000168741
0.000228964
0.000236287
0.000108332
5.7073e-05
5.88786e-05
0.000125579
0.000161004
0.00014771
0.000166534
0.000123188
6.91908e-06
0.000168804
0.000169543
0.000308004
0.000368819
0.000365949
0.000227248
5.81702e-05
6.20318e-05
0.000154716
0.00025234
0.000228278
0.000152358
2.32254e-05
2.19694e-05
9.056e-05
0.000167154
0.000159733
0.000170676
7.94746e-05
7.75572e-06
8.2536e-05
0.000106091
0.000289052
0.000364376
0.00036643
0.000200258
6.68232e-05
6.24907e-05
0.00011774
0.00026116
0.000266135
0.00011546
3.82423e-05
-2.61198e-05
2.85585e-05
0.000158242
0.000166019
0.000149848
7.36913e-05
-1.79718e-05
8.41433e-05
0.000116442
0.000237839
0.000336271
0.000346788
0.000173894
-4.3413e-05
6.32594e-06
9.34903e-05
0.000191371
0.000321276
0.000235204
5.89241e-05
-3.1166e-05
9.94065e-05
0.000168375
0.000178704
0.000129486
1.4087e-05
-0.000149232
8.35624e-05
0.000125575
0.000152189
0.000284435
0.000358687
0.000174785
-8.23482e-05
-5.90122e-05
5.48411e-05
0.000251236
0.000319441
0.000271386
0.000119681
1.63043e-05
0.000149078
0.000191203
0.000187101
0.000157813
1.05508e-05
-5.37802e-05
-0.000134237
5.92857e-05
0.000207273
0.000291475
0.000359006
0.000195037
-3.78999e-05
-1.00059e-05
0.000107098
0.000246849
0.000293027
0.000251753
0.000157955
5.7345e-05
0.00013569
0.000228755
0.000201381
0.00010976
3.61934e-05
9.10391e-05
4.65778e-05
8.30022e-05
0.000199569
0.000239127
0.000274459
0.000189563
4.98799e-05
6.80165e-05
0.000173378
0.000254069
0.000280881
0.000223208
0.000147583
8.53685e-05
0.000151449
0.000201311
0.000172471
0.000143296
0.00011161
0.000119403
0.000111254
0.000106183
0.000143525
0.000201651
0.000216881
0.000161434
5.47718e-05
5.81239e-05
0.000192594
0.000218669
0.000261254
0.000201145
0.000157953
0.00013655
0.000176071
0.000197698
0.000187684
0.000148826
0.000142164
0.00013144
0.000124105
0.000120832
0.000158045
0.000149737
0.000165249
0.000154913
0.000118332
0.000122848
0.000194643
0.000200399
0.00022616
0.000228119
0.000203406
0.000158168
0.000171143
0.00017409
0.000190115
0.000178669
0.000168071
0.000131603
0.000141716
0.000157829
0.000188519
0.000175272
0.000124444
0.000123296
0.000144765
0.000136496
0.000191446
0.000213051
0.000215578
0.000213026
0.000208669
0.000215639
0.0002261
0.00018256
0.000376689
0.000371045
5.65057e-05
-9.63514e-05
-0.000140518
8.39811e-05
0.00038865
0.0004962
0.000395658
0.000334592
0.00020674
0.000156884
0.000200843
0.0002194
0.00016378
0.000123217
0.000148696
0.000219048
0.000203439
0.000202177
0.000375374
0.000227677
5.27499e-05
-0.00010097
-0.000145001
8.10914e-05
0.000478465
0.000453179
0.000381732
0.000280667
0.000206411
0.000157204
0.000201388
0.000219198
0.000162657
0.000121635
0.000147667
0.000218866
0.000203994
0.000194884
0.000370536
0.000394032
4.18863e-05
-0.000167951
-9.53868e-05
7.01616e-05
0.000378851
0.000456419
0.000382138
0.000278305
0.00020477
0.000170872
0.00022013
0.000204028
0.000162395
0.000119113
0.000165494
0.000242371
0.000204121
0.000178561
0.000444467
0.00041992
4.402e-05
-0.000183322
-0.00014758
2.39487e-05
0.000312175
0.000415975
0.000366638
0.000324093
0.000191026
0.000158943
0.000226977
0.000224395
0.000147434
0.000108946
0.000123743
0.000225086
0.000224834
0.000184766
0.000355956
0.000368
-2.50114e-05
-7.28725e-05
-0.000210744
-3.98756e-05
0.000324705
0.000391167
0.000309635
0.000281902
0.000150783
0.000153623
0.000229579
0.000222725
0.000163498
0.000113396
0.000120129
0.000202617
0.000227812
0.00021305
0.000281201
0.000204213
3.0149e-05
-6.37397e-06
-0.000106958
-2.46861e-05
0.000268831
0.000325348
0.00025492
0.000230401
9.71263e-05
0.000145918
0.000243364
0.000215424
0.000188815
0.000122409
0.000137491
0.000245497
0.00024378
0.000215233
0.00023318
0.000229997
2.24334e-05
3.56439e-05
-2.27022e-07
3.46566e-05
0.000178743
0.000333194
0.000264244
0.000161174
6.39455e-05
0.000113218
0.000269725
0.000204889
0.000167361
0.000139859
0.000148498
0.000244444
0.000223776
0.000211028
0.000198056
0.000192289
2.78146e-06
-5.54608e-05
-1.89986e-06
0.000112176
0.000194359
0.000308202
0.00030619
0.000190101
2.73346e-05
0.000101288
0.000220073
0.000241142
0.000217086
0.000149439
0.000149072
0.000203137
0.000198608
0.000199533
0.000191028
0.000158856
4.8028e-05
5.97534e-06
3.723e-05
0.000150565
0.000223683
0.000274463
0.000295492
0.000180957
4.11814e-05
3.00013e-05
0.000151224
0.000226639
0.000246271
0.00018927
0.000178464
0.000185428
0.000185773
0.000179566
0.000171891
0.000150733
5.79923e-05
5.62667e-05
7.30283e-05
0.000109556
0.000187193
0.000242483
0.000247372
0.000190888
4.48719e-05
5.71032e-05
0.000153374
0.000205704
0.000232552
0.000197997
0.000204501
0.000168433
0.000143246
0.000176023
0.000163815
0.000139022
9.87027e-05
9.44425e-05
0.000109344
0.00013761
0.000195983
0.000209111
0.000204334
0.000181303
0.000111447
0.000116783
0.000173021
0.000230143
0.000213938
0.000193155
0.000207154
0.000148914
0.000189355
0.000198014
0.000205797
0.000180053
0.000156649
0.000142227
0.00013696
0.000168339
0.000189103
0.000178018
0.000157245
0.000148292
0.000141188
0.000118446
0.000169569
0.000225882
0.000211531
0.000205858
0.000209365
0.000208933
0.000214515
0.000221221
0.000182251
0.000106614
0.000191408
0.000157605
-5.74558e-05
0.00010833
0.000308605
0.000317122
0.000319665
0.000350528
0.000186092
0.000108139
0.000181213
0.000295198
0.000222492
8.85343e-05
0.00013072
0.000228964
0.000214092
0.000215498
0.000181574
0.000102311
0.000232564
0.000163178
-5.85491e-05
0.000106287
0.000336344
0.000298834
0.000359199
0.000291501
0.000184661
0.000114325
0.000239519
0.000297645
0.0002237
8.52675e-05
0.000128381
0.000230034
0.000204933
0.0002175
0.000142294
9.6114e-05
0.000182031
0.000185334
-6.87429e-05
9.11695e-05
0.000300561
0.000296429
0.000321437
0.000289032
0.000177804
0.000102152
0.000178715
0.000306235
0.000160946
6.57416e-05
0.00011866
0.000244015
0.000212587
0.000210233
0.000173945
4.75386e-05
0.000143987
8.98089e-05
-0.000114507
1.79051e-05
0.000303142
0.000264652
0.000307961
0.000273144
0.000113686
0.000117494
0.000249692
0.000319291
0.000187247
8.88618e-05
0.000172469
0.000241073
0.000221429
0.000180556
0.000106225
5.49691e-05
0.000215324
0.000145224
-0.000137781
-7.38915e-05
0.000228362
0.000171367
0.000213652
0.000309283
8.67502e-05
8.98068e-05
0.000261108
0.000320942
0.000193497
0.000117197
0.000158352
0.000269597
0.000207306
0.000173114
0.000118528
0.00010595
0.000130781
0.000298587
-9.60182e-05
1.00889e-07
0.000128586
4.44308e-05
1.56977e-05
0.000144503
5.31855e-05
9.49107e-05
0.000227695
0.000331004
0.000251549
0.000111772
0.000169405
0.000279878
0.000230813
0.000178029
0.000181807
0.000161399
0.000144948
0.000178053
4.55826e-06
4.68095e-05
0.000160861
0.000141163
2.6435e-05
5.41544e-05
-2.33443e-05
-5.11995e-05
0.000257602
0.000321924
0.000236385
9.97436e-05
0.000142547
0.000282203
0.000176899
0.00017296
0.000192144
0.0001859
0.000139712
6.91186e-05
6.35929e-05
0.000135317
0.000198355
0.000342136
0.000275049
5.9785e-05
-1.11071e-05
4.18002e-06
0.000217385
0.000353861
0.000159958
8.51192e-05
0.000191912
0.000249334
0.000149484
0.000143759
0.000174682
0.000179536
6.92514e-05
5.28901e-05
6.05895e-05
0.000144729
0.000211503
0.000290214
0.000312054
0.000153566
2.32095e-05
4.17975e-05
0.000167269
0.000351644
0.000161019
0.000123137
0.000163526
0.00019487
0.000155001
0.00015553
0.000163294
0.000116968
5.52303e-05
4.99668e-05
6.53577e-05
0.000149682
0.000203342
0.000224303
0.000241724
0.000224974
7.20773e-05
8.43116e-05
0.000159824
0.000247255
0.000218785
0.000150588
0.000181489
0.000157981
0.000166442
0.000155346
0.000157606
0.000143992
0.000102178
8.00708e-05
9.44747e-05
0.000126506
0.000193321
0.0002042
0.000193452
0.000172216
0.000113278
0.000121791
0.000219346
0.000245869
0.000192979
0.000166876
0.000190786
0.000175064
0.000193653
0.000197722
0.000193873
0.000180469
0.00015589
0.000140098
0.000122067
0.000139682
0.000160878
0.000156109
0.000150627
0.00018959
0.000169879
0.000149069
0.000208842
0.00022435
0.000206569
0.000193506
0.000190695
0.000181002
0.000229855
0.00020323
0.000105951
9.44863e-05
0.000241863
8.99944e-05
-4.21834e-05
0.000179368
0.000244334
0.000143665
0.000226113
0.000365211
0.000234221
0.000130437
0.000143765
0.000280187
0.000274588
0.000133125
0.000128458
0.000207983
0.000230684
0.000172499
0.00010323
9.07852e-05
0.00024645
9.13479e-05
-4.45207e-05
0.000176787
0.000211666
0.000138731
0.000222859
0.000329237
0.000233881
0.000112772
0.000141562
0.000281324
0.000217019
0.000130979
0.000124464
0.000207014
0.000234404
0.000170747
5.81727e-05
0.000142624
0.000259989
-3.83033e-05
4.02803e-05
0.000192132
0.000204456
0.000109391
0.000308984
0.000330205
0.000178224
0.00010726
0.000136941
0.000320958
0.000220834
9.79878e-05
0.000139873
0.000202773
0.000227686
0.000163137
3.65673e-05
0.000113925
0.000238845
-4.76608e-05
-8.69134e-05
0.000154416
8.10901e-05
6.90621e-05
0.000194921
0.000366193
0.00015737
0.000104016
0.000204856
0.000313379
0.000219288
9.0947e-05
0.000120492
0.000218925
0.000216648
0.00018071
9.54558e-06
2.51612e-05
0.000263854
0.000151182
-0.00012956
0.000156412
-6.14534e-06
-5.47273e-05
0.00024929
0.000355648
0.000218587
0.000104516
0.000159895
0.000303605
0.000207435
0.000101521
0.000125481
0.000214873
0.000218548
0.000157758
9.125e-05
3.333e-05
0.000225181
0.000155216
-0.000126026
0.000178621
-1.5923e-05
-0.000174142
9.66674e-05
0.000276304
0.00021721
0.000116633
0.00022748
0.000305278
0.000217352
7.42976e-05
0.00012172
0.000236466
0.000199697
0.000161627
0.000129473
8.6522e-05
0.000171832
4.58612e-05
2.5177e-05
0.000183223
9.76477e-05
-2.96995e-05
-6.57254e-05
0.000103781
0.00011819
0.000133347
0.000261476
0.000296033
0.000275712
7.67099e-05
0.0001044
0.000242474
0.000182281
0.000187675
0.000154436
0.000124881
0.00012942
5.96162e-05
1.40507e-05
0.000174445
0.000109815
0.000120201
0.000120085
8.10617e-05
-5.18045e-05
8.15902e-05
0.000197126
0.000367671
0.000177494
7.7734e-05
0.000129349
0.000227879
0.000112323
0.000184872
0.000160735
0.000131245
5.80351e-05
4.70454e-05
6.70702e-05
0.000154909
0.00018373
0.000210484
0.000255849
0.000131478
1.08242e-05
0.000125233
0.000203843
0.000388762
9.80582e-05
9.10056e-05
0.000154003
0.000167425
0.000154129
0.000180946
0.000158211
0.00010058
4.21927e-05
5.25576e-05
6.82915e-05
0.000158024
0.00019265
0.000184171
0.000214029
0.000206325
9.93402e-05
0.000121826
0.000204341
0.000265381
0.000123978
0.000115864
0.000167023
0.000135408
0.000182106
0.000176943
0.000168667
0.000168071
0.000113397
6.79286e-05
8.30873e-05
0.000141034
0.000183826
0.000182634
0.000180175
0.000167038
0.000135294
0.000144361
0.000247135
0.000257988
0.000174739
0.000161732
0.000188648
0.000161198
0.000193449
0.000195938
0.000193965
0.000183336
0.000152434
0.000134854
0.000111794
0.000129832
0.000146832
0.000132448
0.000145908
0.000180533
0.000165793
0.000157265
0.000211771
0.00022782
0.000209124
0.000192583
0.000180772
0.000175796
0.000169721
0.000155099
0.000136618
0.000168928
0.000143494
5.3066e-05
9.52933e-06
0.000248562
0.000371609
0.000296331
0.000270001
0.000269014
0.000282948
0.000283419
0.000271677
0.000157644
0.000133679
0.000273044
0.000361061
0.000248186
0.000168417
0.00013524
0.000153988
0.000165651
0.000104064
5.28713e-05
9.4539e-05
0.000315178
0.00029605
0.000290284
0.000270425
0.000247313
0.000293792
0.000283368
0.000273587
0.000156424
0.000175092
0.000272076
0.000364128
0.00020638
0.000131111
0.000179365
0.000226926