/*--------------------------------*- C++ -*----------------------------------*\
| =========                 |                                                 |
| \\      /  F ield         | OpenFOAM: The Open Source CFD Toolbox           |
|  \\    /   O peration     | Version:  5.0                                   |
|   \\  /    A nd           | Web:      www.OpenFOAM.org                      |
|    \\/     M anipulation  |                                                 |
\*---------------------------------------------------------------------------*/
FoamFile
{
    version     2.0;
    format      ascii;
    class       volVectorField;
    location    "0";
    object      U;
}
// * * * * * * * * * * * * * * * * * * * * * * * * * * * * * * * * * * * * * //

dimensions      [0 1 -1 0 0 0 0];

internalField   nonuniform List<vector> 
7200
(
(0.0326744 -7.28424e-05 0.00629771)
(0.0325201 -0.000185385 0.00558662)
(0.0311055 -9.46945e-05 0.00517199)
(0.0270171 1.69214e-05 0.00374558)
(0.0211487 -0.000138434 0.00344768)
(0.0186957 -0.000366237 0.00389831)
(0.0187317 -0.000257249 0.00290301)
(0.0192846 -6.66737e-05 0.00106931)
(0.0208471 7.09426e-05 -0.000353478)
(0.0233522 8.18475e-05 -0.00206513)
(0.0266963 -4.33808e-05 -0.00463502)
(0.0298213 -7.39392e-05 -0.00675142)
(0.0287506 -2.92523e-05 -0.00642422)
(0.0238304 -0.000107668 -0.00542026)
(0.0199765 -0.000255517 -0.00558694)
(0.0188541 -0.000157911 -0.00546045)
(0.0210773 0.00016346 -0.00240306)
(0.0248126 0.00049073 0.00102655)
(0.0287285 0.000547867 0.00363548)
(0.0313559 0.000402056 0.00624614)
(0.0566411 -0.000311172 0.00908666)
(0.0564226 -0.000503736 0.0075864)
(0.054138 -0.000243079 0.00755488)
(0.0448798 3.37472e-06 0.0052139)
(0.0360006 -0.00057591 0.00551815)
(0.0330602 -0.00080029 0.00589768)
(0.031641 -0.000568921 0.00442612)
(0.0319159 -0.000179392 0.00196701)
(0.035816 0.000103779 -0.000660466)
(0.0410093 -9.48373e-05 -0.00339636)
(0.0451167 -0.000298428 -0.00595612)
(0.052225 -0.00025943 -0.010234)
(0.0510827 -0.00016828 -0.00953243)
(0.0437908 -0.000278278 -0.00745094)
(0.036199 -0.000540401 -0.00777503)
(0.0320108 -0.000405154 -0.00841026)
(0.0362905 0.000589797 -0.00221925)
(0.0404373 0.000979432 0.000932991)
(0.0475949 0.0011034 0.00517166)
(0.0551055 0.000354129 0.00994794)
(0.102438 -0.00141391 0.0125197)
(0.100851 -0.00148365 0.0096298)
(0.0988211 -0.000768355 0.00891778)
(0.0942112 -2.75501e-05 0.00909645)
(0.0792324 -0.00087021 0.00674792)
(0.0635064 -0.00178368 0.00902703)
(0.0569434 -0.00126028 0.00633695)
(0.0556579 -0.000741717 0.00454951)
(0.0586484 -0.000250227 0.00284717)
(0.065471 -0.00107629 0.0015437)
(0.0772548 -0.00232881 -0.00282189)
(0.090913 -0.0018671 -0.0109326)
(0.0956053 -0.000773828 -0.0134145)
(0.0867101 -0.000863528 -0.00934421)
(0.0782707 -0.00102468 -0.00866268)
(0.0644367 -0.000975119 -0.0119518)
(0.0574265 -0.000342798 -0.0113822)
(0.0689877 0.00127376 -0.00282527)
(0.0842659 0.00151341 0.00431238)
(0.0976876 0.00024915 0.0113632)
(0.135098 -0.00306248 0.00676449)
(0.129267 -0.00165616 0.0108519)
(0.128912 -0.00167711 0.00703029)
(0.132985 -0.000276103 0.0102972)
(0.131097 -0.00136407 0.00678308)
(0.13021 -0.00117144 0.00532958)
(0.111103 -0.00176432 0.01109)
(0.0870776 -0.00161841 0.00723138)
(0.0836916 -0.0010597 0.00674489)
(0.0830589 -0.00320571 0.00869069)
(0.0828269 -0.00644608 0.011577)
(0.0975237 -0.00939843 0.00941661)
(0.112397 -0.00744093 0.000836684)
(0.13322 -0.0035665 -0.0101835)
(0.127279 -0.0024114 -0.00944662)
(0.116729 -0.000551448 -0.00825745)
(0.110362 -0.000132492 -0.0117428)
(0.0961045 -0.00148527 -0.0193847)
(0.0969989 -0.00334678 -0.0202507)
(0.111224 -0.00352471 -0.0117242)
(0.136439 -0.00737435 -0.00194668)
(0.142144 -0.00210457 0.0060501)
(0.129973 -0.00218803 0.00472117)
(0.133808 -0.00163411 0.00350201)
(0.136642 -0.00216243 0.00732505)
(0.13526 -0.00437675 0.00473762)
(0.142078 -0.0018317 0.00878631)
(0.122642 -0.000635368 0.0106032)
(0.102335 -0.00147108 0.00919659)
(0.104068 -0.00259363 0.00820144)
(0.107107 -0.00742274 0.009032)
(0.103968 -0.0131981 0.0173793)
(0.1118 -0.0118033 0.0123407)
(0.131557 -0.00617737 -0.00349965)
(0.124129 -0.00137884 -0.00722458)
(0.108732 -0.00190255 7.49404e-05)
(0.122431 -0.000101648 0.000860266)
(0.127427 0.000644866 -0.0116518)
(0.115256 -0.0063042 -0.0262827)
(0.11807 -0.00711798 -0.0221605)
(0.136818 -0.0116996 -0.00886611)
(0.14574 -0.00343895 0.00161166)
(0.143137 -0.000131146 0.00362898)
(0.132309 -0.00227816 0.000711117)
(0.141955 -0.00248076 0.00464363)
(0.14075 -0.00612331 0.0045399)
(0.146442 -0.00458936 0.00751095)
(0.140523 0.00178784 0.00912552)
(0.122087 0.00036047 0.0101973)
(0.119981 -0.00356262 0.00837078)
(0.131572 -0.00842139 0.0027422)
(0.124684 -0.0123243 0.0144417)
(0.120143 -0.0120924 0.0153576)
(0.126632 -0.00677392 0.00215731)
(0.125626 0.00116035 -0.00661237)
(0.114207 0.000443136 -0.000644082)
(0.123102 -0.000232747 0.00672403)
(0.135309 0.00209308 0.00148189)
(0.141246 -0.00273576 -0.0155534)
(0.129622 -0.00785155 -0.0228044)
(0.14447 -0.0118727 -0.0140366)
(0.145289 -0.00777506 -0.00489748)
(0.140887 -0.000567675 0.00153485)
(0.136325 -0.00129648 0.00057425)
(0.137877 -0.00379692 0.00116796)
(0.144633 -0.00623578 0.00450165)
(0.138449 -0.00906035 0.00121598)
(0.135298 -0.0025175 0.00623822)
(0.129553 0.00375206 0.00737995)
(0.131137 -0.00564655 -0.00456764)
(0.137759 -0.0111711 -0.00601316)
(0.145703 -0.00861287 0.00743027)
(0.132803 -0.00770027 0.0130131)
(0.126514 -0.00300822 0.0066443)
(0.130606 0.00248789 -0.00508842)
(0.128582 0.0015152 -0.00809576)
(0.131528 -0.00053296 0.000198254)
(0.135493 -0.000708115 0.00225514)
(0.15134 -0.00139788 -0.0120795)
(0.1471 -0.00293022 -0.0196053)
(0.156143 -0.00746768 -0.0150784)
(0.153003 -0.00760065 -0.010244)
(0.145478 -0.00445232 -0.00506776)
(0.140167 0.00174037 0.00337274)
(0.143111 -0.0041283 0.00374792)
(0.144989 -0.00518672 0.00494699)
(0.138779 -0.00469881 0.000949354)
(0.127648 -0.00116906 -0.00188617)
(0.133472 0.00151645 -0.00267582)
(0.140992 -0.00264817 -0.00827086)
(0.143596 -0.00992325 -0.00623996)
(0.151356 -0.00862559 0.00705729)
(0.13479 -0.000965408 0.0119217)
(0.12876 0.00184893 0.00957255)
(0.128357 0.00307364 -0.000913312)
(0.130456 -0.00130856 -0.00337813)
(0.138094 -0.00125498 -0.00147526)
(0.140991 -0.00193395 0.00273405)
(0.148164 -0.000986914 -0.0068726)
(0.154586 -0.000342178 -0.013184)
(0.165026 -0.00183885 -0.0112785)
(0.162126 -0.00307235 -0.0117023)
(0.153206 -0.00196605 -0.00991709)
(0.14328 0.00307584 -0.000746031)
(0.143832 0.000612172 0.00457041)
(0.142436 -0.0026007 0.00525377)
(0.137195 -0.000829215 1.88325e-05)
(0.139887 -9.46742e-05 -0.0025056)
(0.141138 -0.00215597 0.00127136)
(0.140592 -0.00114355 0.00138154)
(0.145826 -0.00779602 0.000886011)
(0.149329 -0.00803934 0.0065744)
(0.139765 0.00433014 0.00889379)
(0.132009 0.00660592 0.00859004)
(0.125673 0.00314879 0.00551337)
(0.129867 -0.000651337 0.00338849)
(0.137029 -0.00134378 0.00278131)
(0.139711 0.00162638 0.00491569)
(0.142754 0.00245709 0.00294232)
(0.155297 -8.99122e-05 -0.00835292)
(0.158978 -0.00433421 -0.0075049)
(0.162773 0.00058447 -0.00852811)
(0.1531 0.00409033 -0.00847077)
(0.150119 0.00470992 -0.00612312)
(0.148159 0.00180061 -0.000995413)
(0.143959 -0.00290796 0.00280481)
(0.143115 -0.00493268 0.00538491)
(0.150967 -0.0042962 0.00368776)
(0.14972 -0.000410605 0.00503196)
(0.141822 0.00368685 0.00335222)
(0.142184 -0.000122739 -0.0036248)
(0.145538 -0.00457669 0.0021084)
(0.14499 0.000649347 0.00618177)
(0.142268 0.00957781 0.00521188)
(0.141007 0.00818661 -0.000272244)
(0.138679 0.0039675 -0.00126908)
(0.139462 0.00278329 0.00401706)
(0.140555 0.00372589 0.00615049)
(0.142505 0.00299173 0.00788892)
(0.148588 -0.00112841 0.000863871)
(0.161225 0.00103742 -0.000556308)
(0.161413 0.0053618 -0.00460547)
(0.152474 0.00714461 -0.00983846)
(0.14905 0.00206667 -0.00892717)
(0.150522 -0.000782885 -0.00688439)
(0.155495 -0.00298266 -0.00361369)
(0.157781 -0.00487829 -0.00102319)
(0.154323 -0.00749962 0.00660429)
(0.151299 -0.00434556 0.00900403)
(0.150012 -0.00144964 0.00664892)
(0.149778 -0.000898189 0.000712629)
(0.149542 -0.00338387 -0.000565896)
(0.150714 -0.000747274 0.00585911)
(0.154575 0.00748506 0.00280939)
(0.155759 0.0073548 -0.00297508)
(0.154904 0.00303747 -0.00909654)
(0.150039 0.00341615 -0.00335775)
(0.148949 0.00386395 0.00148872)
(0.152112 -0.00170381 0.00978479)
(0.156494 -0.00324466 0.00746994)
(0.161618 -0.000347414 0.00232012)
(0.161948 0.00580076 -0.00210034)
(0.159324 0.00893316 -0.00643333)
(0.159104 0.00712521 -0.00734985)
(0.159279 0.00372486 -0.00493738)
(0.159118 -0.00110032 0.000416793)
(0.159591 -0.00291798 0.00036055)
(0.15761 -0.00246845 -0.00134058)
(0.157019 -0.00414346 0.00426755)
(0.15784 -0.0087075 0.00670165)
(0.157762 -0.00929409 0.0044881)
(0.15699 -0.00573821 0.0013857)
(0.156545 0.000460587 0.0037531)
(0.155571 0.00490291 0.00640939)
(0.155574 0.00206694 0.00470321)
(0.157525 -0.00122034 -0.0055362)
(0.158771 0.00194717 -0.00925724)
(0.157794 -0.000336571 -0.00362648)
(0.156295 -0.00413026 0.00225219)
(0.156672 -0.00594873 0.00747025)
(0.020314 0.000596612 0.00213233)
(0.0210707 0.000499624 0.00588191)
(0.0205003 0.000288331 0.00623206)
(0.0194663 0.000177851 0.00503905)
(0.0183392 0.000205653 0.00527909)
(0.0190217 0.000105629 0.00550843)
(0.0209625 2.09008e-05 0.00401958)
(0.0237031 -0.000107029 0.00168307)
(0.026665 -0.000139443 -0.000869075)
(0.0281778 -0.000114144 -0.00261831)
(0.0284256 -0.000195777 -0.00228615)
(0.0289557 -0.000340838 -0.000564697)
(0.0278207 -0.000327329 0.000701882)
(0.0236968 -0.000318524 2.90926e-05)
(0.0189143 -0.000507561 -0.000802915)
(0.0157626 -0.000712743 -0.000110145)
(0.014637 -0.00051599 -0.000500491)
(0.0147095 -0.000153808 -0.00206149)
(0.0159642 0.000172409 -0.00346731)
(0.0180562 0.000512439 -0.00273785)
(0.0248222 0.00136438 0.00188245)
(0.0254942 0.00141373 0.00604154)
(0.0369736 0.000719296 0.00999244)
(0.0266509 0.000857637 0.00528009)
(0.0273845 0.000861498 0.00540819)
(0.0327061 0.0003024 0.00883386)
(0.0350838 5.32991e-05 0.00666867)
(0.0412768 -0.000397895 0.00196734)
(0.0442672 -0.000425659 -0.00032072)
(0.054146 -0.000817703 -0.000509691)
(0.0492426 -0.000558508 -0.00309335)
(0.0505994 -0.000834687 -0.00033764)
(0.0494382 -0.000770654 0.000866683)
(0.0409573 -0.000821487 -0.000326914)
(0.0293283 -0.00118409 0.00506086)
(0.0282742 -0.00148564 -0.00046084)
(0.0215504 -7.98757e-05 0.000615666)
(0.0210519 0.000130308 -0.00374371)
(0.0210034 0.000295692 -0.00680836)
(0.0297162 0.00109734 -0.0031342)
(0.065536 0.00179321 0.00580579)
(0.0734297 0.0017066 0.0129353)
(0.0509978 0.00325525 0.0117336)
(0.0503259 0.00274007 0.00995919)
(0.051222 0.00270106 0.0105003)
(0.055197 0.00226707 0.0107936)
(0.0617995 0.00112218 0.00904865)
(0.0684484 -0.00106928 0.00781496)
(0.0836109 -0.00205124 0.00334648)
(0.0910289 -0.00231897 0.00240297)
(0.093156 -0.00157717 0.00226555)
(0.0925154 -0.00129096 0.000834739)
(0.089723 -0.00146621 0.003276)
(0.0880329 -0.00168635 0.00152048)
(0.0601452 -0.00196609 0.00633453)
(0.0626222 -0.00270094 -0.000631598)
(0.0404643 -0.00016472 0.00120649)
(0.0389234 0.000683964 -0.00676218)
(0.0380661 0.000889416 -0.00887222)
(0.0404438 0.00161745 -0.0060245)
(0.0678124 0.00306441 -0.00265011)
(0.0771329 0.00425363 0.00758099)
(0.0855009 0.00538247 0.0139081)
(0.0888003 0.00574711 0.0149107)
(0.0892634 0.00553595 0.0146583)
(0.0948854 0.00607596 0.0190252)
(0.0974133 0.00539425 0.0206316)
(0.0994394 0.000486542 0.0182122)
(0.102636 -0.00235669 0.0125038)
(0.0966473 -0.00200633 0.00978644)
(0.0968944 -0.0030454 0.0122714)
(0.119224 -0.00364021 0.0111517)
(0.124603 -0.00611265 0.00528524)
(0.132744 -0.00451561 0.000489306)
(0.133225 -0.00225395 0.00611481)
(0.109449 -5.45836e-05 0.00892023)
(0.0691574 -0.000862281 0.00420058)
(0.0666196 -0.00134734 -0.00559576)
(0.0646912 0.00249173 -0.0135836)
(0.0619683 0.00230351 -0.0148234)
(0.0768572 0.00284526 -0.0101229)
(0.104825 0.00123128 -0.000324485)
(0.0957151 0.00233976 0.00783128)
(0.11947 -0.0013678 0.00719539)
(0.12287 -0.00126837 0.00829194)
(0.127697 -0.00362913 0.00956659)
(0.139064 -0.00112825 0.0140229)
(0.134181 0.000134753 0.0177312)
(0.118318 -0.000837356 0.0123381)
(0.113994 -0.000936504 0.00977102)
(0.112372 -0.00330174 0.0119612)
(0.121622 -0.00877856 0.0180584)
(0.131433 -0.00671766 0.0111079)
(0.137494 -0.00869339 -0.00065517)
(0.134042 -0.00617174 0.00178611)
(0.135876 -0.00484694 0.00332507)
(0.105342 -0.0012684 0.00928076)
(0.0908662 -0.00326914 0.00488663)
(0.0839987 0.000236376 -0.00584884)
(0.0835772 0.0038869 -0.0158244)
(0.103404 0.00405173 -0.0112857)
(0.109929 0.00364619 -0.00497775)
(0.0956933 0.0014682 -0.00235817)
(0.100639 3.1915e-06 0.0010745)
(0.111331 0.000703714 0.00410691)
(0.116346 9.81701e-06 0.00552145)
(0.13087 -0.000743949 0.00932336)
(0.141024 0.000607997 0.0136925)
(0.13195 0.000422516 0.0129382)
(0.1311 -0.00408097 0.00916607)
(0.131251 -0.00424926 0.0065711)
(0.137422 -0.00939461 0.0125001)
(0.137474 -0.00702465 0.0118827)
(0.135706 -0.0100297 -0.00264389)
(0.135847 -0.00540071 -0.00102994)
(0.131852 -0.00666963 -8.13165e-05)
(0.141012 -0.00313167 0.0059644)
(0.131355 -0.00104019 0.000272672)
(0.108303 -0.00428964 0.0019904)
(0.0976611 0.00222299 -0.0141249)
(0.101479 0.00523304 -0.0159936)
(0.100632 0.00509747 -0.00832478)
(0.10418 0.00386461 -0.00264977)
(0.104755 0.00218776 -0.00449562)
(0.117075 -0.00354436 -0.0015286)
(0.1156 -0.00331201 -0.00737195)
(0.126413 -0.0082536 -0.00224298)
(0.127043 -0.00198493 0.0035013)
(0.130814 0.000172043 0.00523368)
(0.138404 -0.00554486 0.00106934)
(0.138518 -0.00986944 -0.00339563)
(0.14261 -0.0127418 0.00492456)
(0.142855 -0.00867265 0.00963692)
(0.129526 -0.00517699 -0.00368899)
(0.133405 -0.00544265 -0.00764967)
(0.136742 -0.00355992 -0.00721073)
(0.128788 -0.00587987 -0.00428704)
(0.15084 -0.00220022 0.00424041)
(0.137607 -0.00395023 0.00576863)
(0.113042 -0.000801348 -0.0135119)
(0.11136 0.00172358 -0.0153664)
(0.117114 0.00330248 -0.010832)
(0.123005 0.00416679 -0.0045504)
(0.123659 0.00433252 -0.000954453)
(0.121377 0.00234896 -0.00173833)
(0.126149 -0.0016146 -0.00110741)
(0.132678 -0.00427624 -0.0031922)
(0.129332 -0.0016662 -0.00637512)
(0.141362 -0.00417677 -0.00345264)
(0.138873 -0.0109836 -0.00362684)
(0.133967 -0.0110844 -0.00472221)
(0.140108 -0.0142843 0.000518689)
(0.13893 -0.00820854 0.00992879)
(0.141406 -0.000399695 0.00388604)
(0.132208 -0.00267956 -0.0111133)
(0.141304 -0.000674564 -0.00787963)
(0.137791 -0.00462872 -0.00999167)
(0.147968 -0.00368395 -0.00640496)
(0.153255 0.00176077 -0.006118)
(0.127344 -0.000415535 -0.00661502)
(0.146684 0.00236783 -0.0122251)
(0.133764 -0.000737964 -0.0121894)
(0.132455 0.00227258 -0.00912188)
(0.118353 0.0137694 0.000491924)
(0.120647 0.00962478 0.00529736)
(0.128742 0.00346174 0.00624784)
(0.127812 0.0011634 -0.00159674)
(0.133209 -0.00306675 -0.00752977)
(0.143001 -0.0100873 -0.00678119)
(0.14605 -0.00910384 -0.00585291)
(0.140125 -0.0101284 -0.00756388)
(0.132481 -0.00803254 -0.005103)
(0.14159 -0.00593806 0.00565547)
(0.145028 0.00176706 0.00896533)
(0.134012 0.00410514 0.00421629)
(0.138949 -0.00255614 -0.00621136)
(0.145227 -0.00278329 -0.00906475)
(0.148807 -0.000850931 -0.00611806)
(0.152242 -0.00113478 -0.0037684)
(0.151727 0.0039971 -0.00515811)
(0.161974 0.00221354 -0.00322933)
(0.161918 0.00432028 -0.00557898)
(0.137426 0.00838905 -0.00432195)
(0.132419 0.00639502 -0.00202792)
(0.141684 0.00323919 0.00223916)
(0.133941 0.00565645 0.00986911)
(0.135595 0.00498409 0.0048186)
(0.140586 -0.000323839 -0.00423048)
(0.146179 -0.00637593 -0.00146607)
(0.153994 -0.007111 0.00190721)
(0.153701 -0.00767869 -0.00270818)
(0.147738 -0.00515 -0.004023)
(0.147399 0.000311426 0.00346398)
(0.149911 0.00173894 0.00536054)
(0.143345 0.00402412 0.00645324)
(0.141008 0.00194171 0.00161338)
(0.141929 0.00392237 -0.00166916)
(0.150656 0.000496609 0.000734741)
(0.155323 -0.000431812 0.00726451)
(0.1619 -0.00453526 0.00331183)
(0.161413 -0.000479648 -8.16837e-05)
(0.156803 0.00620993 -0.00378485)
(0.153712 0.0106882 -0.00629987)
(0.149975 0.0040833 -0.00768082)
(0.14642 0.00118093 -0.00792351)
(0.145459 -0.000761769 -0.00547588)
(0.143815 0.00187787 0.0017756)
(0.148183 0.00222531 0.00880334)
(0.150644 -0.00270253 0.010247)
(0.153376 -0.00517441 0.00941826)
(0.156929 -0.00422701 0.00633888)
(0.154445 -0.00339718 0.00122605)
(0.153152 -0.00129174 0.000442515)
(0.151756 0.00092932 0.00245907)
(0.157166 -0.0014125 0.000942196)
(0.157216 -0.00227674 -0.00314512)
(0.153202 0.000936649 -0.00149007)
(0.149515 0.00144625 0.00477902)
(0.160005 -0.00758762 0.00300055)
(0.166393 -0.0107306 0.00399706)
(0.165699 0.000611394 8.91239e-06)
(0.168709 0.00219425 -0.000506831)
(0.169347 0.00534752 -0.00265379)
(0.164426 0.00638434 -0.00668871)
(0.160276 0.00677181 -0.00503325)
(0.155966 0.00451259 -0.000927177)
(0.153188 -0.000434845 -0.00181875)
(0.152774 -0.00135805 -0.00215768)
(0.155794 0.000838458 0.000661456)
(0.158033 -0.00154568 0.00136998)
(0.155931 0.000414754 -0.00107342)
(0.156169 0.000300638 -0.000584938)
(0.158017 0.00389115 0.000994621)
(0.158706 0.0046695 0.000468897)
(0.160531 0.00241638 -0.000672886)
(0.161464 -0.00238062 -0.0028706)
(0.160233 -0.00153251 -0.00709857)
(0.155838 0.00204337 -0.00233576)
(0.156764 0.000368282 0.00054737)
(0.160001 -0.0045744 0.00486372)
(0.0172331 -0.00058941 -0.00139481)
(0.0162787 -0.000224092 -0.00131708)
(0.0161826 -2.53358e-05 -0.00164523)
(0.0172655 4.66645e-05 -0.00184509)
(0.0181524 4.91212e-05 -0.00153041)
(0.0189328 1.10537e-05 -0.00131424)
(0.0198565 -3.94032e-05 -0.0013291)
(0.0214704 -0.000131719 -0.000583701)
(0.0236189 -0.000127257 0.0014161)
(0.0244085 -9.46185e-06 0.00391203)
(0.0218691 7.68288e-05 0.00568481)
(0.0175796 5.08529e-05 0.00612253)
(0.0151443 0.000213923 0.00612383)
(0.0144063 0.000428563 0.00599671)
(0.0158746 0.000465587 0.00441875)
(0.01754 0.000476092 0.000989674)
(0.0175967 0.000280959 -0.00221485)
(0.0173576 -1.2975e-05 -0.0038252)
(0.0167246 -0.000334509 -0.00340547)
(0.0172787 -0.000776378 -0.00199892)
(0.0283593 -0.0011268 -0.00156287)
(0.0266832 -0.000182344 -0.00174361)
(0.0270542 1.18523e-05 -0.00217363)
(0.0296238 0.000132133 -0.00243043)
(0.0305044 0.000101674 -0.00219957)
(0.0320505 -2.35228e-07 -0.00201507)
(0.0349553 -0.000254578 -0.0017796)
(0.0366541 -0.000391786 -0.000893303)
(0.041685 -0.000370551 0.00325947)
(0.0427416 -0.000181303 0.00554075)
(0.0402684 0.000128975 0.00837114)
(0.0297845 0.000325891 0.00917066)
(0.0252565 0.000838677 0.00923704)
(0.0246274 0.00105796 0.00838547)
(0.0279002 0.00102297 0.00458679)
(0.0300663 0.000920861 0.00139484)
(0.0320654 0.000174905 -0.00445211)
(0.0320523 -0.000187499 -0.00553923)
(0.0307613 -0.00087847 -0.00470723)
(0.0299412 -0.00163868 -0.00242826)
(0.0477073 -0.00152878 -0.000853998)
(0.0459611 -0.000494844 -0.000894835)
(0.0466121 0.000361618 -0.00163633)
(0.0515977 0.000471496 -0.00238474)
(0.0534651 0.000352742 -0.00232174)
(0.0566479 2.69217e-05 -0.00255006)
(0.0607082 -0.000468121 -0.00286551)
(0.0654642 -0.00116935 -0.00195782)
(0.0730031 -0.00165624 0.00188474)
(0.0766752 -0.00133932 0.00474317)
(0.0792742 -0.000369563 0.00948548)
(0.0718711 0.000708191 0.0119776)
(0.0576125 0.00181143 0.0126294)
(0.0491893 0.00286127 0.0138881)
(0.0476076 0.0025412 0.0120449)
(0.0545364 0.00162183 0.00584424)
(0.0655099 -0.000192106 -0.00296731)
(0.0675849 -0.000844177 -0.0063432)
(0.0620932 -0.0027204 -0.00652775)
(0.0570493 -0.00344697 -0.0036415)
(0.0794846 -0.0025701 -0.00214836)
(0.0668876 0.000396532 0.000167509)
(0.066017 0.0024128 0.00148131)
(0.0735942 0.00245359 0.00217699)
(0.078421 0.00183204 0.0025335)
(0.082218 0.00142893 0.002053)
(0.0874869 0.000503698 0.00258629)
(0.0922577 -0.000162938 0.00353227)
(0.101046 -0.00209586 0.00221951)
(0.104638 -0.00201409 0.00365359)
(0.107005 -0.00152259 0.00523577)
(0.11352 -0.00044037 0.0101615)
(0.109255 0.00300306 0.0132063)
(0.103546 0.00438268 0.0148293)
(0.0979548 0.00481646 0.0199443)
(0.093932 0.00132229 0.0205945)
(0.100155 -0.00325278 0.0161826)
(0.109882 -0.00502685 0.011235)
(0.120925 -0.00447162 -0.00131735)
(0.109519 -0.00447258 -0.00674021)
(0.105697 -0.00065162 -0.00363051)
(0.0767408 0.00347458 -0.000833523)
(0.0750072 0.00505132 0.000797942)
(0.0804146 0.00589461 0.0041142)
(0.0889355 0.00437651 0.00658389)
(0.0927283 0.00465016 0.00766126)
(0.0953295 0.0048248 0.0091567)
(0.106224 0.00348469 0.0134703)
(0.110332 0.00248049 0.0119211)
(0.11223 0.000164981 0.00618931)
(0.115682 0.000874482 0.00542531)
(0.120645 -0.00194402 0.00652245)
(0.125526 -0.000705035 0.00964681)
(0.124271 0.00279225 0.0120836)
(0.125544 0.00262065 0.0137746)
(0.127528 0.000588345 0.0190756)
(0.131474 -0.00527281 0.0176384)
(0.13241 -0.00880558 0.0191324)
(0.13636 -0.00956132 0.0130026)
(0.139449 -0.00587125 -0.00224314)
(0.127714 0.000881274 -0.00352824)
(0.0914004 0.00576893 -0.00276415)
(0.0843113 0.00775105 -0.00309308)
(0.0857612 0.00909559 -0.00102815)
(0.0962987 0.00671058 0.00396116)
(0.102652 0.0076437 0.00649314)
(0.106019 0.0085094 0.00836129)
(0.114309 0.00870778 0.0128518)
(0.123023 0.00726788 0.0168578)
(0.122443 0.00465731 0.0123514)
(0.121068 0.002597 0.00623553)
(0.127556 0.00236252 0.00829499)
(0.127638 -8.30535e-05 0.00770407)
(0.126261 0.00132711 0.00120642)
(0.126691 -0.000777157 0.0015993)
(0.128396 -0.00191196 0.0088605)
(0.137533 -0.00778716 0.00563943)
(0.144147 -0.00830603 0.0102205)
(0.143126 -0.0114914 0.0163756)
(0.14662 -0.00603955 7.04749e-06)
(0.133747 0.0026484 -0.00307079)
(0.115546 0.00419295 -0.00451815)
(0.0992114 0.00922592 -0.00486793)
(0.0968037 0.0112684 -0.00666612)
(0.0991398 0.00529937 -0.00492664)
(0.101387 0.0052108 -0.00399611)
(0.108209 0.00863567 0.000251674)
(0.116412 0.0107944 0.00461832)
(0.123459 0.00948787 0.010742)
(0.126438 0.00465621 0.00497124)
(0.128119 0.000864556 0.00375929)
(0.131661 0.00213926 0.00891963)
(0.130329 0.00568261 0.0089084)
(0.12391 0.00317977 -0.00827913)
(0.128639 -0.00432553 -0.0125238)
(0.13399 -0.00427956 -0.00279302)
(0.140276 -0.00897858 -0.00493959)
(0.141025 -0.00898921 -0.00339338)
(0.144072 -0.00987977 0.00730937)
(0.15492 -0.0121758 0.00544466)
(0.147545 0.000945421 0.000113057)
(0.126066 0.00488485 -0.0015558)
(0.107353 0.0102636 -0.00680797)
(0.111575 0.00680435 -0.0121389)
(0.11851 0.00287744 -0.0120854)
(0.117208 0.000875639 -0.00975278)
(0.109788 0.00639582 -0.00604661)
(0.113416 0.00956692 -0.00520754)
(0.120946 0.00773973 -0.00331304)
(0.122665 0.00235776 -0.00319153)
(0.120667 -0.000858415 -0.00208281)
(0.117526 0.00756864 0.000734328)
(0.118196 0.0111564 -0.00847607)
(0.124931 -0.000280546 -0.0172397)
(0.131102 -0.00792844 -0.01957)
(0.132668 -0.00742741 -0.0177958)
(0.143842 -0.0102159 -0.0123179)
(0.144719 -0.00905745 -0.0114398)
(0.152233 -0.0124168 0.000222948)
(0.158318 -0.00990933 0.00240488)
(0.150687 0.00152542 0.00284087)
(0.148129 0.00325498 0.000999664)
(0.135246 0.00427786 0.00155938)
(0.123502 1.0445e-05 0.00085263)
(0.130939 -0.00121288 -0.000372937)
(0.131202 0.00129332 -0.00231064)
(0.120307 0.00430051 -0.0090684)
(0.12204 0.00325343 -0.0103854)
(0.12456 0.00265336 -0.00609492)
(0.125272 0.0021628 -0.00239002)
(0.1177 0.000938082 -0.00113399)
(0.116308 0.00521696 -0.00258804)
(0.129488 0.0102644 0.00312205)
(0.135097 0.00373025 0.00553758)
(0.135169 -0.00151229 -0.0010655)
(0.137611 -0.00490234 -0.0146526)
(0.144761 -0.00732506 -0.0175062)
(0.149804 -0.0101853 -0.0163234)
(0.158663 -0.0136078 -0.00336743)
(0.158899 -0.00938904 0.00464726)
(0.161411 -0.00350781 0.0037313)
(0.163976 0.00199952 0.00185255)
(0.158676 0.00597357 0.00309862)
(0.134002 0.00543898 0.000897136)
(0.129523 0.00325894 0.00201583)
(0.131462 0.00170072 0.00680151)
(0.139564 0.000503629 0.00299978)
(0.141132 -0.0020068 -0.0071013)
(0.135038 -0.0029977 -0.00781347)
(0.13418 -0.000864093 -0.000864677)
(0.136244 -0.00141154 0.000295295)
(0.138487 0.00224931 0.00165196)
(0.141729 0.00602395 0.00786926)
(0.142665 0.00552086 0.0114643)
(0.144488 0.00162673 0.00797449)
(0.148543 -0.0027342 -0.00100733)
(0.152521 -0.00702973 -0.00665441)
(0.155902 -0.0104 -0.00790447)
(0.159423 -0.0113959 -0.00308773)
(0.16334 -0.00934622 0.00719341)
(0.164513 -0.00287678 0.00310858)
(0.159327 0.00457579 -0.00234342)
(0.15162 0.00831455 -0.00127272)
(0.144507 0.00821217 -0.00244548)
(0.146039 0.00320213 -0.00419305)
(0.144152 0.00130913 -0.000415864)
(0.140855 0.0037202 0.00370296)
(0.143839 0.00459302 0.0035326)
(0.145426 0.00118274 0.000865484)
(0.143745 0.00132842 -0.000407524)
(0.144308 0.0024609 -0.00194707)
(0.146168 0.00123508 -0.00153558)
(0.143999 0.00272669 0.00116684)
(0.145322 0.00462618 0.000948143)
(0.152977 0.00114213 -0.00260879)
(0.156235 -0.00234229 -0.00219583)
(0.154749 -0.00244436 0.00260437)
(0.158064 -0.00744113 0.000548552)
(0.161429 -0.0106015 -0.0031879)
(0.16354 -0.00743295 0.00464907)
(0.159334 -0.00136794 0.000582161)
(0.165921 0.00339218 0.000909247)
(0.168813 0.00371658 -0.00133656)
(0.168044 0.00433311 -0.00543652)
(0.164372 0.00600559 -0.00431557)
(0.161102 0.00493033 -0.000693443)
(0.154852 0.00173198 4.19479e-05)
(0.150364 0.00210334 0.000536217)
(0.15232 0.00516754 0.00124055)
(0.154906 0.00667302 0.000287454)
(0.153788 0.00376053 -0.00201939)
(0.152597 0.0031663 -0.00094244)
(0.153606 0.00477998 5.22792e-05)
(0.155628 0.0049321 -0.000830511)
(0.158496 0.00247231 -0.00274031)
(0.157888 -0.000937519 -0.00367288)
(0.155667 -0.00335216 -0.00409374)
(0.155932 -0.00541825 -0.00359385)
(0.156392 -0.00731953 -0.00362435)
(0.157241 -0.00738217 -0.0028823)
(0.0149816 -0.00025982 0.00214323)
(0.0139801 -8.43086e-05 0.000410644)
(0.0139364 -3.5954e-05 -0.00128087)
(0.0152783 -3.74181e-05 -0.0018291)
(0.0162197 -5.53216e-05 -0.000937555)
(0.0163158 -6.94176e-05 -0.00021725)
(0.0160699 -4.71724e-05 -0.000228988)
(0.0161382 -2.92291e-05 0.000165091)
(0.0161886 0.000105716 0.00143396)
(0.0155167 0.00027538 0.00312682)
(0.0142325 0.000322786 0.00420927)
(0.0138445 0.000243876 0.00396525)
(0.0145255 0.000311149 0.00241598)
(0.0153447 0.000494953 0.000586255)
(0.0164157 0.000487941 -0.000893771)
(0.0171185 0.000226172 -0.00184799)
(0.016327 -0.000176166 -0.00170924)
(0.0155416 -0.00052265 -0.00067035)
(0.0154205 -0.000695294 0.00140151)
(0.0156252 -0.000600454 0.00306934)
(0.0241081 -0.000358442 0.00176317)
(0.0233648 -0.000170558 0.00024816)
(0.0236496 -8.85967e-05 -0.00194357)
(0.0257138 -0.000107787 -0.00252901)
(0.0272802 -0.000157414 -0.00136709)
(0.0278047 -0.000181926 -0.000478779)
(0.0279726 -0.00013604 -0.000316793)
(0.0282409 -7.50666e-05 0.000453173)
(0.0281602 0.00037774 0.00350381)
(0.0274781 0.000617165 0.00519277)
(0.0245943 0.000772284 0.0070334)
(0.0238235 0.00070124 0.00636758)
(0.0244914 0.000984325 0.00283073)
(0.0255783 0.00115476 0.00127792)
(0.0282983 0.000984177 -0.000911784)
(0.031347 -3.01013e-05 -0.00221764)
(0.0309737 -0.000590362 -0.00201099)
(0.0282842 -0.00140166 7.29245e-05)
(0.02746 -0.00152772 0.00191647)
(0.0263372 -0.00122444 0.00397952)
(0.0438262 -0.00105884 0.00340034)
(0.041587 -0.000327752 0.000356147)
(0.0421522 -0.000167753 -0.00254503)
(0.0466593 -0.000302121 -0.00300876)
(0.0490283 -0.000577165 -0.00156308)
(0.0500451 -0.000667565 -0.00123557)
(0.0529876 -0.000642641 -0.000860376)
(0.0540604 -0.00048514 -7.60856e-05)
(0.0545329 0.00044252 0.00373561)
(0.0537311 0.0014467 0.00838988)
(0.050573 0.00221585 0.0117074)
(0.0451638 0.00231095 0.0107326)
(0.0436396 0.00275394 0.00728024)
(0.0474518 0.00288179 0.00424619)
(0.0556165 0.00152 0.00136774)
(0.0613848 0.000199546 0.000290619)
(0.0674115 -0.00230372 -0.000706686)
(0.0637638 -0.00302533 -0.000809254)
(0.0547686 -0.0036247 0.0016599)
(0.0482056 -0.00272565 0.00476918)
(0.0694047 -0.000368702 0.00266055)
(0.065 0.00057192 -0.00109874)
(0.0645782 0.000522604 -0.0031664)
(0.0693821 0.000381223 -0.00325635)
(0.071882 -4.25677e-05 -0.00148406)
(0.0745572 -0.00117492 -0.000938299)
(0.0765914 -0.00168262 -0.00198843)
(0.0860078 -0.00161113 -0.0015719)
(0.0900861 -0.000985404 -0.00104738)
(0.0929993 0.000227469 0.00115248)
(0.0909821 0.00151488 0.00583759)
(0.0888692 0.00440211 0.0150086)
(0.0823009 0.00574503 0.0154379)
(0.0799586 0.00587245 0.0157384)
(0.0830537 0.00471864 0.017075)
(0.101039 -0.0009941 0.0177121)
(0.113109 -0.00411223 0.0174124)
(0.119648 -0.00396294 0.0121682)
(0.110608 -0.00466131 0.00431942)
(0.0798558 -0.00333002 0.00530268)
(0.0867879 0.00198164 0.00185218)
(0.0806581 0.00355283 -0.00294995)
(0.0782407 0.00341527 -0.00523089)
(0.0790457 0.0024936 -0.00350872)
(0.0824635 0.00163783 0.00100361)
(0.0835177 0.00132955 0.0020547)
(0.0851122 0.000758272 0.000257155)
(0.094982 0.000286214 0.000199385)
(0.103422 -0.000201205 -0.000225156)
(0.108992 9.97177e-05 -0.000167564)
(0.112445 0.00119026 0.00243679)
(0.108712 0.00221204 0.00807074)
(0.109977 0.00600578 0.0135817)
(0.109616 0.00654107 0.0144477)
(0.11145 0.0051615 0.0162903)
(0.125748 -0.000761762 0.0178441)
(0.13327 -0.00466237 0.018754)
(0.135684 -0.00511955 0.0201657)
(0.136963 -0.00240177 0.00838956)
(0.115901 -0.00242427 0.00715869)
(0.100848 0.00412771 0.00455135)
(0.0946198 0.00713686 -0.00171833)
(0.0914178 0.00779187 -0.00631741)
(0.0871084 0.00584738 -0.00618654)
(0.0888244 0.00399465 0.000623539)
(0.0899564 0.0041826 0.00285377)
(0.0915958 0.00580078 0.00076659)
(0.101351 0.00656675 0.000662563)
(0.111281 0.00518218 0.00431505)
(0.11919 0.002211 0.00337031)
(0.125963 0.00190126 0.00441998)
(0.123548 0.00146821 0.00594393)
(0.119413 0.00332004 0.00553812)
(0.119966 0.0064635 0.00220635)
(0.124254 0.00380995 0.00666984)
(0.126087 0.00129064 0.00883193)
(0.133834 -0.00368753 0.00429384)
(0.134562 -0.00557023 0.0118034)
(0.145579 -0.00372965 0.0101048)
(0.129042 0.00183031 0.00758722)
(0.121564 0.00360243 0.00652739)
(0.102512 0.00571142 0.00330227)
(0.0991022 0.00987843 -0.00810803)
(0.0980304 0.00814731 -0.0101384)
(0.0971154 0.00376684 -0.00216414)
(0.0943623 0.00563259 0.000797495)
(0.0971586 0.0108444 -0.00262295)
(0.105133 0.0131584 -0.00213393)
(0.116064 0.0121284 0.00399331)
(0.12141 0.00847361 0.00433258)