# y+ ()       
# Time        	patch         	min           	max           	average       
200           	top	0.000000e+00	0.000000e+00	0.000000e+00
200           	walls	4.562727e+00	4.562727e+00	4.562727e+00
