/*--------------------------------*- C++ -*----------------------------------*\
| =========                 |                                                 |
| \\      /  F ield         | OpenFOAM: The Open Source CFD Toolbox           |
|  \\    /   O peration     | Version:  5.0                                   |
|   \\  /    A nd           | Web:      www.OpenFOAM.org                      |
|    \\/     M anipulation  |                                                 |
\*---------------------------------------------------------------------------*/
FoamFile
{
    version     2.0;
    format      ascii;
    class       volScalarField;
    location    "0";
    object      nut;
}
// * * * * * * * * * * * * * * * * * * * * * * * * * * * * * * * * * * * * * //

dimensions      [0 2 -1 0 0 0 0];

internalField   nonuniform List<scalar> 
7200
(
1.19546e-08
2.29049e-09
1.08456e-09
9.19531e-10
2.14201e-09
8.95273e-09
1.02079e-08
3.63353e-09
6.36424e-10
3.69413e-09
3.25675e-09
1.3448e-09
7.02658e-09
8.93113e-09
7.47838e-09
6.58187e-09
7.3576e-09
5.94162e-08
6.39434e-08
3.00899e-08
4.58364e-08
8.50402e-09
3.61309e-09
2.70269e-09
8.98519e-09
2.20894e-08
2.92714e-08
1.21718e-08
5.42349e-09
2.78477e-08
3.21052e-08
1.81588e-08
2.72659e-08
2.52697e-08
1.82441e-08
2.20805e-08
5.02671e-08
2.18415e-07
3.48976e-07
1.11704e-07
4.60623e-06
3.06265e-07
6.42065e-08
1.26869e-08
9.65303e-09
5.81619e-08
7.15231e-08
4.73657e-08
1.49882e-08
3.02052e-07
1.81527e-06
3.07266e-06
2.08644e-06
1.61506e-07
9.54981e-08
7.79936e-08
6.17581e-08
1.48957e-06
5.57306e-06
8.06135e-06
3.12631e-05
1.17457e-05
1.18332e-06
1.43017e-06
2.13336e-07
6.40225e-07
1.023e-06
1.78417e-07
4.3619e-08
4.99637e-08
8.95475e-08
1.61928e-06
7.10201e-06
1.45327e-05
8.28355e-06
1.14408e-06
1.38486e-06
2.61726e-06
3.84169e-07
5.64748e-06
2.67229e-05
3.11613e-05
2.16116e-06
1.47625e-06
3.01881e-06
4.08145e-06
2.17244e-06
2.87172e-06
4.28077e-07
3.25024e-07
3.85077e-07
1.07934e-06
1.65486e-06
1.96284e-05
2.82256e-05
3.67835e-06
1.69153e-06
7.96533e-06
7.40116e-06
1.53456e-06
6.6248e-06
3.00357e-05
2.29707e-05
4.65406e-06
2.54057e-06
4.87133e-06
3.22992e-06
4.28307e-06
2.94856e-06
1.58883e-06
5.41959e-06
4.58168e-06
3.67383e-06
6.80692e-06
3.75542e-05
1.18345e-05
1.40851e-06
1.66301e-06
1.34766e-05
4.67651e-06
2.39156e-06
1.05721e-05
1.82072e-05
5.55541e-06
1.96901e-06
3.44254e-06
1.90332e-06
3.20321e-06
1.00465e-05
8.86041e-06
1.16109e-05
4.15241e-06
7.35481e-06
7.19126e-06
1.91369e-05
2.56008e-05
4.92653e-06
1.80062e-06
4.07912e-06
1.58955e-05
3.18537e-06
4.67273e-06
3.99154e-06
5.16075e-06
3.96092e-06
3.14135e-06
2.26053e-06
4.07536e-06
6.94292e-06
3.33668e-06
1.0529e-05
6.24107e-06
8.49991e-06
5.81538e-06
1.63411e-05
2.49427e-05
1.53955e-05
9.58799e-06
3.78829e-06
3.99646e-06
3.52138e-06
3.37957e-06
2.81271e-06
4.74638e-06
7.27043e-06
4.28195e-06
4.72367e-06
2.31394e-06
1.01166e-06
6.0506e-06
2.39522e-05
4.4728e-06
1.09668e-05
6.13653e-06
4.11334e-06
5.48952e-06
5.09898e-06
4.06582e-06
2.57449e-06
1.15563e-05
3.55741e-05
1.87471e-05
2.99707e-06
2.1243e-06
4.55816e-06
5.48918e-06
5.69084e-06
8.45348e-06
2.86362e-06
4.27967e-06
8.48943e-06
1.41025e-05
8.56193e-06
5.44608e-06
2.32563e-06
8.36645e-06
3.02942e-06
1.6701e-06
1.54612e-06
4.93333e-06
1.75388e-05
3.15421e-05
1.69425e-05
2.50884e-06
8.349e-06
1.81859e-05
5.86817e-06
1.2158e-05
1.26503e-05
9.5803e-06
1.47623e-06
4.66941e-06
1.05242e-05
3.80406e-06
4.31873e-06
2.59977e-05
1.54183e-05
4.3755e-06
4.38871e-06
9.69977e-06
3.77188e-06
1.88915e-05
3.56413e-05
2.59365e-05
1.64188e-05
4.80618e-06
2.06268e-05
9.47349e-06
1.00028e-05
5.21173e-06
5.4618e-06
6.576e-06
1.22336e-05
1.56544e-05
2.24906e-06
2.79623e-05
3.70379e-05
1.18332e-05
5.80452e-06
1.74797e-05
1.21545e-07
7.28301e-08
2.10922e-08
6.60948e-09
4.44029e-09
7.2399e-09
6.91508e-09
4.08674e-09
1.51712e-09
1.02511e-09
1.56772e-09
1.99383e-09
8.89251e-09
1.95462e-08
3.90509e-08
9.30831e-08
1.71192e-07
7.84448e-08
6.5775e-09
5.6968e-08
2.96194e-07
2.25596e-07
3.61184e-08
6.52387e-08
7.01967e-08
2.95074e-08
3.42989e-08
1.47279e-08
8.71863e-09
4.37123e-09
3.60732e-09
7.57722e-09
1.77181e-08
3.75412e-08
8.83711e-08
1.52161e-07
1.5254e-07
6.63475e-08
1.51503e-08
1.64125e-07
4.60442e-06
2.89806e-06
3.11022e-07
2.34516e-07
2.28158e-07
3.73803e-07
5.35929e-07
1.67499e-07
7.71443e-07
7.86193e-07
4.4134e-07
3.90513e-07
2.10482e-08
9.27285e-08
1.3136e-07
1.074e-07
4.03285e-07
2.38211e-07
7.72785e-08
4.68285e-07
3.72612e-06
1.23261e-05
9.20516e-06
4.72925e-06
3.73744e-06
6.55331e-07
5.09598e-07
2.26511e-07
2.9746e-07
1.02446e-07
3.55827e-07
3.35098e-06
3.04517e-06
4.52104e-06
1.90328e-06
1.8386e-06
1.05312e-06
8.84526e-07
1.11012e-06
4.71993e-07
1.2447e-06
1.39816e-05
2.78923e-05
8.39927e-06
6.57845e-06
3.39365e-06
5.44498e-06
2.54282e-06
1.41551e-06
5.16331e-07
3.54344e-07
1.42956e-06
3.29221e-06
4.19925e-06
4.4117e-06
2.01806e-06
1.90347e-06
2.18125e-06
8.97243e-07
2.65195e-06
2.67659e-06
1.22522e-05
1.36721e-05
1.45441e-05
2.84557e-05
3.01228e-05
4.07674e-05
8.9512e-06
5.16953e-06
5.21883e-06
3.13401e-06
1.66741e-06
1.40661e-05
5.72249e-06
7.7789e-06
6.67993e-06
3.69446e-06
2.04468e-06
2.10383e-06
2.86885e-06
2.4095e-06
1.25381e-06
9.76095e-06
7.02081e-06
5.38518e-06
1.79107e-05
9.12959e-06
9.47741e-06
1.05959e-05
3.45247e-06
5.09367e-06
6.59577e-06
3.12383e-05
1.80539e-05
6.42849e-06
5.09193e-06
1.44244e-06
4.49388e-06
3.2076e-06
4.52034e-06
2.19038e-06
5.46742e-06
9.6021e-06
1.5386e-05
6.40622e-06
5.82477e-06
5.31406e-06
6.67371e-06
2.44458e-06
1.08111e-05
4.81512e-06
3.8229e-06
3.30008e-05
2.32549e-05
3.64824e-06
3.34842e-06
7.12625e-06
8.45223e-06
6.21616e-06
6.16098e-06
2.99423e-06
2.74826e-06
2.61645e-06
3.27066e-06
2.23979e-05
1.19041e-05
3.38117e-06
3.23153e-06
1.42231e-05
7.82687e-06
3.62706e-06
2.95155e-06
1.29993e-05
2.25772e-05
5.39555e-06
3.33241e-06
8.33406e-06
5.13172e-06
5.3309e-06
1.46009e-05
5.3521e-06
5.12254e-06
5.66339e-06
5.43448e-06
8.90335e-06
1.0985e-05
4.50531e-06
1.48498e-05
1.22252e-05
2.80306e-06
7.42884e-06
1.28218e-05
3.15702e-06
4.50279e-06
1.89464e-06
2.70445e-06
1.47542e-05
2.99104e-05
7.79301e-06
1.94147e-05
6.98698e-06
1.27461e-05
2.03435e-05
3.96605e-06
6.19604e-06
6.08223e-06
3.30164e-06
2.05699e-05
2.87688e-05
1.38176e-05
9.44761e-06
7.50528e-06
7.01759e-06
2.90791e-06
3.20087e-06
3.9538e-06
5.37036e-06
6.84437e-06
6.63221e-06
6.86608e-06
4.83384e-06
1.84982e-06
3.76333e-06
6.00576e-06
3.8071e-06
1.66983e-06
6.63827e-06
6.63284e-06
8.16615e-06
1.55704e-05
2.8015e-05
2.44332e-05
7.08438e-06
5.01006e-06
2.86185e-06
5.88605e-06
1.16955e-05
1.82132e-06
2.87615e-06
1.38891e-05
1.46462e-07
1.27873e-07
2.2277e-08
6.00028e-09
4.0328e-09
3.12623e-09
2.58158e-09
1.55138e-09
7.42307e-10
2.5007e-09
8.07275e-09
1.53941e-08
1.05318e-08
1.6003e-08
9.46012e-08
1.38481e-07
5.58371e-08
1.23393e-08
9.56081e-09
4.18856e-08
2.85681e-07
1.59107e-07
6.63961e-08
3.27445e-08
2.69474e-08
2.12963e-08
1.29163e-08
8.91441e-09
2.49702e-09
4.54338e-09
1.35426e-08
3.31381e-08
3.1655e-08
8.7149e-08
3.2877e-07
3.91979e-07
7.69446e-08
2.38592e-08
2.22876e-08
8.67948e-08
7.06337e-07
7.09216e-07
3.39852e-07
4.0324e-07
3.69036e-07
3.48079e-07
3.72379e-07
3.07505e-07
4.47173e-08
1.82157e-08
2.47172e-08
8.01205e-08
7.3967e-08
6.39729e-08
3.86422e-07
1.18836e-06
1.05877e-06
6.49515e-07
9.02869e-08
1.66649e-07
1.19956e-06
1.87416e-06
1.11655e-06
3.38262e-06
4.06088e-06
4.22777e-06
3.70909e-06
2.34246e-06
6.31109e-07
5.89726e-07
8.48423e-07
4.0004e-06
5.90668e-06
7.86168e-07
1.16717e-06
2.36688e-07
5.4387e-07
4.16381e-07
5.64758e-06
7.42167e-06
2.76232e-06
3.45904e-06
1.58995e-06
3.55433e-06
4.75581e-06
4.16531e-06
3.4305e-06
1.89177e-06
1.48378e-06
1.08339e-06
1.77346e-06
3.4362e-06
2.72657e-06
5.21853e-06
5.26177e-06
3.39722e-06
1.37585e-06
1.50127e-06
5.57327e-06
8.70803e-06
7.20048e-06
6.32767e-06
4.71143e-06
4.18712e-06
8.29229e-06
6.21379e-06
5.56916e-06
8.44407e-06
1.67471e-05
1.39714e-05
3.78199e-06
2.55834e-06
6.93051e-06
6.99785e-06
2.06107e-05
1.08555e-05
2.8143e-06
3.59241e-06
1.28047e-05
9.36801e-06
7.15661e-06
5.45509e-06
7.67098e-06
4.05334e-06
5.26692e-06
4.7483e-06
9.7998e-06
2.67565e-05
4.05496e-05
4.32851e-05
1.84095e-05
7.0752e-06
1.01681e-05
6.09385e-06
1.46298e-05
2.06947e-05
1.99516e-05
9.92778e-06
1.57316e-05
1.77201e-05
6.7448e-06
5.72451e-06
6.32329e-06
6.19902e-06
5.30909e-06
2.57686e-06
2.93358e-06
1.45044e-05
4.29843e-05
4.79115e-05
2.31561e-05
1.35177e-05
3.69205e-05
1.93142e-05
1.49578e-05
6.74294e-06
2.83089e-05
1.63495e-05
1.76955e-05
1.83979e-05
1.82422e-05
2.37739e-05
5.34358e-06
7.75265e-06
2.35101e-05
3.13133e-05
1.51435e-05
4.74201e-06
5.46335e-06
1.02681e-05
4.78413e-06
4.97702e-06
1.19674e-05
7.41369e-06
1.94061e-05
7.39376e-06
2.37723e-06
6.25016e-06
9.07187e-06
1.1926e-05
5.03336e-06
8.02754e-06
8.8116e-06
6.95542e-06
4.9164e-06
2.61464e-06
7.14438e-06
2.32619e-05
1.55299e-05
4.12817e-06
3.01508e-06
5.13628e-06
3.6999e-06
5.35527e-06
7.54082e-06
6.05623e-06
1.04768e-05
9.21769e-06
2.37773e-05
8.59487e-06
1.04963e-05
1.3962e-05
1.13372e-05
3.01121e-06
4.63404e-06
3.94085e-06
5.80342e-06
3.10002e-06
4.65215e-06
3.9198e-06
4.19615e-06
4.26566e-06
4.89082e-06
5.46681e-06
9.6453e-06
4.12487e-06
3.42076e-06
1.15929e-05
5.10042e-06
4.37472e-06
5.79984e-06
8.3229e-06
4.46648e-06
1.88504e-06
4.29061e-06
1.72624e-06
4.29789e-06
3.00683e-06
2.91051e-06
2.91438e-06
6.99674e-06
3.16718e-06
1.69328e-06
2.24287e-06
1.93899e-06
7.41578e-06
6.20761e-06
2.32656e-06
4.38183e-06
5.52329e-06
1.11426e-07
3.44654e-08
4.59682e-09
3.07495e-10
8.02457e-11
3.02621e-10
1.0413e-09
1.47688e-09
1.85438e-09
3.8031e-09
6.28388e-09
9.56092e-09
2.63085e-08
9.08739e-08
1.44113e-07
6.47752e-08
1.16047e-08
2.62868e-08
7.594e-08
1.45553e-07
1.66349e-07
7.05136e-08
9.27253e-09
9.12837e-10
3.67759e-10
9.90037e-10
3.28975e-09
3.90757e-09
5.47543e-09
7.55698e-09
1.5792e-08
2.13691e-08
1.05633e-07
2.59359e-07
4.73536e-07
9.35736e-08
2.51835e-08
9.74128e-08
1.6594e-07
3.02231e-07
7.23422e-07
2.22402e-07
3.18318e-08
2.4777e-08
1.0864e-08
8.05194e-09
1.35806e-08
1.09348e-08
1.04651e-08
2.03797e-08
2.25203e-08
2.97479e-08
1.14014e-07
7.5183e-07
2.75338e-06
3.07662e-06
4.28284e-07
1.11879e-07
2.4403e-07
6.91031e-07
1.30713e-06
4.33042e-07
2.5794e-07
1.57436e-06
1.74408e-06
7.99521e-07
9.21866e-07
7.66711e-07
6.49879e-07
3.57939e-07
1.85031e-07
5.5358e-07
6.35643e-08
1.44035e-07
4.51444e-07
4.02609e-06
2.59335e-06
2.13696e-06
1.7733e-06
8.73997e-07
3.13869e-06
1.75687e-06
1.17148e-06
2.9387e-06
3.88068e-06
2.90948e-06
1.64871e-06
3.43625e-06
3.93278e-06
3.71874e-06
2.05079e-06
4.54882e-07
3.11379e-07
7.62635e-07
7.53275e-07
2.36273e-06
3.31926e-06
6.50572e-06
1.02435e-05
5.22671e-06
6.95344e-06
3.59846e-06
5.7965e-06
3.50266e-06
4.28233e-06
6.30724e-06
3.17706e-06
5.70208e-06
7.15591e-06
4.25513e-06
1.66842e-06
1.56554e-06
1.45696e-06
5.95429e-06
1.04951e-05
8.4877e-06
2.2841e-06
1.12568e-05
1.87895e-05
1.09914e-05
1.17375e-05
3.88793e-06
1.08295e-05
1.13199e-05
2.36561e-06
2.79871e-06
4.03222e-06
7.53465e-06
1.09624e-05
1.1924e-05
6.57831e-06
3.00787e-06
4.98891e-06
4.44615e-06
8.85128e-06
1.40797e-05
1.60482e-05
1.58835e-05
3.032e-05
2.91733e-05
9.35791e-06
7.11399e-06
6.71557e-06
1.40672e-05
6.22799e-06
4.3303e-06
4.67779e-06
1.07134e-05
1.11891e-05
1.14284e-05
9.32603e-06
1.19104e-05
8.87071e-06
7.77679e-06
2.57576e-05
4.11724e-06
1.76919e-05
2.39881e-05
2.79505e-05
2.093e-05
1.41441e-05
7.45284e-06
5.03049e-06
8.25746e-06
2.14519e-05
1.01029e-05
1.06122e-05
1.08274e-05
9.96281e-06
2.87923e-06
9.64762e-06
1.00843e-05
6.33626e-06
1.6033e-05
3.0837e-05
5.13002e-06
4.80551e-06
2.41059e-06
2.57599e-06
2.33634e-05
4.83258e-06
8.27583e-06
1.75917e-05
4.36756e-06
1.01106e-05
8.86132e-06
6.49789e-06
1.0671e-05
4.00766e-06
2.86535e-06
3.84389e-06
9.72692e-06
6.48017e-06
6.67897e-06
1.22249e-05
8.66691e-06
1.25429e-05
3.68915e-06
4.87552e-06
9.59689e-06
1.69211e-05
1.50823e-05
1.05398e-05
4.58315e-06
8.64968e-06
5.7069e-06
8.31945e-06
6.83366e-06
4.52751e-06
3.94208e-06
1.20888e-05
1.57138e-05
5.15065e-06
4.08802e-06
9.013e-06
8.53305e-06
8.94007e-06
1.0789e-05
5.81907e-06
1.24363e-05
5.95593e-06
7.10679e-06
4.90637e-06
3.01819e-06
3.89699e-06
1.67342e-06
7.90993e-06
3.41795e-06
2.24079e-06
3.00378e-06
2.44208e-06
3.16343e-06
3.24445e-06
4.42654e-06
3.08279e-06
1.42196e-05
7.23387e-06
5.65517e-06
1.28936e-05
3.31364e-06
1.13287e-08
6.56969e-09
1.85115e-09
6.17117e-09
8.33637e-09
7.20054e-10
4.36219e-10
1.35341e-09
2.00336e-09
7.24828e-09
2.50064e-08
2.29356e-08
6.18237e-09
7.10239e-10
1.10755e-09
1.1076e-09
2.20727e-09
7.67712e-09
8.38462e-09
4.10605e-09
1.3188e-07
1.65929e-08
4.71018e-09
1.47254e-08
1.828e-08
1.46906e-09
1.07917e-08
2.67871e-09
9.71742e-09
3.24687e-08
1.74572e-08
1.56811e-08
3.8858e-09
1.43465e-09
1.92661e-09
2.54574e-09
2.80658e-09
2.12277e-08
2.52871e-08
1.98594e-08
3.31381e-07
7.50715e-07
2.85001e-08
3.8348e-08
1.3303e-08
1.18055e-08
1.83668e-08
1.06101e-07
9.62425e-08
7.52787e-08
1.03515e-07
3.27123e-07
2.53656e-07
2.25711e-08
9.06559e-09
5.08318e-08
4.29235e-08
2.89239e-08
1.89315e-07
3.32441e-07
5.45097e-06
4.81859e-06
2.03627e-06
5.34983e-06
1.30907e-07
1.13277e-07
2.97004e-08
1.54471e-07
3.2592e-07
1.38959e-06
6.39516e-07
3.96099e-07
9.26647e-07
1.94517e-06
7.83554e-07
7.36431e-08
7.29901e-07
3.40994e-07
2.03944e-07
2.67917e-06
1.90951e-06
1.32146e-06
7.50538e-07
1.947e-06
7.0875e-07
1.95135e-07
7.36612e-07
5.51678e-07
2.68208e-07
1.36997e-06
2.16247e-06
8.09231e-07
3.13745e-07
5.01919e-07
2.63244e-06
1.25925e-06
6.60005e-07
4.79019e-06
5.04844e-07
4.38825e-07
1.70811e-05
1.26804e-05
2.80819e-06
2.26756e-06
3.30504e-06
1.18557e-06
5.76978e-06
1.80139e-06
1.18217e-06
8.31669e-07
2.11172e-06
6.42868e-06
5.41057e-06
6.9302e-07
1.94252e-06
8.64528e-07
1.63155e-06
1.07582e-05
1.0577e-05
3.75465e-06
9.85595e-06
1.14105e-05
1.51169e-05
4.93384e-06
1.43069e-06
2.85724e-06
7.65043e-06
8.97258e-06
4.3048e-06
3.36772e-06
6.70317e-06
3.76902e-06
3.53794e-06
2.20483e-06
4.17979e-06
3.82718e-06
2.67035e-06
9.34688e-06
4.01119e-06
1.30553e-05
5.09891e-06
4.78985e-06
1.37535e-05
1.17054e-05
2.67204e-06
3.56958e-06
1.43246e-05
8.07524e-06
2.93679e-05
1.72595e-05
4.4965e-06
3.48241e-06
1.26134e-06
5.64723e-06
5.41824e-06
2.35346e-05
1.63585e-05
4.28067e-06
1.86335e-05
6.02278e-06
2.03005e-05
2.10553e-05
1.11271e-05
2.61163e-05
9.96715e-06
5.31261e-06
1.49387e-05
1.01398e-05
3.26038e-05
2.92372e-05
1.02388e-05
1.13474e-05
2.50554e-06
7.05433e-06
3.50927e-06
6.67169e-06
3.37201e-05
4.94376e-06
3.49476e-06
2.61312e-05
1.72757e-05
2.09693e-05
3.76798e-05
6.6274e-06
6.39401e-06
6.88094e-06
1.72993e-05
1.58713e-05
3.4408e-05
1.99097e-05
1.15321e-05
7.5953e-06
2.18895e-05
6.97093e-06
5.94536e-06
3.9127e-06
1.6145e-05
2.38058e-06
3.60826e-06
1.56339e-05
7.98347e-06
8.49234e-06
7.01256e-06
5.63601e-06
6.68115e-06
3.5599e-06
1.56832e-05
1.54559e-05
3.13681e-06
4.84933e-06
2.5494e-05
4.4608e-05
7.33142e-05
4.12227e-05
2.58533e-05
1.23138e-05
8.45745e-06
5.51714e-06
3.06526e-06
5.96408e-06
3.71107e-06
4.79993e-06
4.62804e-06
3.64036e-06
5.73245e-06
4.99544e-06
1.11114e-05
1.18987e-05
4.74854e-06
4.98646e-06
6.41373e-06
8.13567e-06
1.38028e-05
2.25104e-05
4.4893e-05
2.288e-05
4.32917e-06
1.04186e-05
1.06191e-05
7.32454e-06
1.47315e-08
2.17207e-09
1.41559e-09
1.39731e-09
8.62308e-10
1.56071e-08
2.6837e-08
1.64083e-08
1.82797e-08
1.56141e-08
1.16887e-08
1.06133e-08
1.29946e-08
5.64888e-09
1.00384e-09
1.83291e-09
2.72554e-09
1.04381e-08
3.50696e-08
4.02962e-08
4.13331e-08
4.8067e-09
9.74014e-09
8.8334e-09
3.54389e-09
2.1897e-08
5.24776e-08
4.45782e-08
5.60877e-08
6.28445e-08
5.35189e-08
3.52525e-08
3.25145e-08
1.08858e-08
3.32164e-09
5.53909e-09
8.29929e-09
5.67738e-08
9.13686e-08
8.82778e-08
1.48654e-07
2.31077e-08
3.29615e-08
1.30506e-07
2.27788e-08
1.56305e-08
8.84732e-08
2.96596e-07
2.68793e-07
3.91577e-07
4.3589e-07
2.10239e-07
1.00526e-07
8.70835e-08
3.12793e-08
1.71747e-08
3.1802e-08
2.81004e-07
3.91153e-07
2.54755e-07
8.49941e-07
4.07221e-08
8.58908e-08
6.97761e-07
2.86128e-06
1.4998e-06
1.79233e-06
3.23646e-06
8.80246e-07
2.59774e-06
2.52946e-06
2.32566e-06
1.22596e-06
2.19549e-07
1.44509e-07
2.09097e-07
1.65362e-07
1.63583e-07
2.14237e-06
2.94512e-06
2.98184e-06
9.71672e-07
4.73466e-07
1.05595e-06
3.27983e-06
1.45214e-06
2.21317e-06
1.58815e-05
1.40901e-05
1.12656e-06
4.21546e-06
7.46983e-06
5.46007e-06
1.76151e-06
6.52646e-07
1.26687e-06
7.00591e-07
1.83797e-06
1.04058e-06
2.91431e-06
1.45982e-06
2.86383e-06
1.80471e-06
1.01871e-06
3.26415e-06
2.86086e-06
3.32163e-06
9.1053e-06
1.41628e-05
4.09888e-06
2.53576e-06
1.16639e-05
2.83292e-05
2.96181e-05
1.41151e-05
5.72941e-06
3.22684e-06
7.09629e-06
8.57681e-06
3.20173e-06
1.15689e-05
3.42349e-06
1.08698e-06
7.04129e-07
8.46469e-06
1.52563e-05
1.69743e-05
1.1138e-05
7.98591e-06
9.90033e-06
4.08828e-06
3.35435e-06
2.63592e-05
3.28607e-05
1.80907e-05
6.92526e-06
4.42621e-06
3.62498e-06
5.52875e-06
7.12606e-06
7.02949e-06
1.30901e-05
6.97674e-06
3.4474e-06
5.28936e-06
1.48422e-05
6.52311e-06
2.08456e-05
1.2842e-05
5.52154e-06
4.50948e-06
1.39748e-06
4.6416e-06
6.24569e-06
2.47494e-06
4.57922e-06
3.04471e-06
2.04629e-06
1.84648e-06
2.78531e-06
1.09252e-05
1.53272e-05
1.01471e-05
9.51372e-06
8.96889e-06
1.05766e-05
5.2564e-06
4.4e-06
6.6034e-06
5.86414e-06
6.17625e-06
7.56786e-06
3.70505e-06
7.21936e-06
3.10414e-06
2.24247e-06
3.48331e-06
3.02778e-06
2.96689e-06
4.53941e-06
3.41565e-06
2.56776e-05
1.20625e-05
1.17057e-05
2.001e-05
5.9017e-06
6.55102e-06
7.53805e-06
1.7199e-05
5.13859e-06
5.43287e-06
1.05874e-05
2.7233e-05
1.5487e-05
7.69358e-06
3.44126e-06
2.96634e-06
4.04655e-06
5.61633e-06
5.7837e-06
1.89576e-05
6.90144e-06
8.54293e-06
1.66872e-05
2.46494e-05
1.30278e-05
6.37017e-06
4.44692e-06
1.08734e-05
1.06603e-05
1.63813e-05
1.94761e-05
5.22483e-06
7.25227e-06
6.78921e-06
6.54032e-06
7.68842e-06
2.94893e-06
4.39377e-06
8.86937e-06
1.79528e-05
3.61222e-05
3.66283e-05
4.68506e-06
7.91201e-06
4.75949e-06
1.46964e-05
1.5475e-05
9.10495e-06
1.52635e-05
9.84917e-06
1.41405e-05
1.58661e-05
7.49107e-06
1.14449e-05
2.14443e-05
6.14234e-06
9.80601e-06
7.41433e-06
2.46362e-05
3.01403e-08
8.81325e-09
2.28692e-08
2.05532e-08
7.17658e-10
7.64368e-09
2.85363e-08
5.54433e-08
6.31851e-09
1.1978e-09
7.77035e-10
2.91188e-09
3.47583e-09
6.25926e-09
2.87387e-09
3.01001e-09
5.635e-09
9.38629e-09
1.52562e-08
2.50968e-08
6.33809e-08
1.70228e-08
3.76979e-08
7.06904e-08
4.00604e-09
1.40016e-08
5.98923e-08
9.47703e-08
8.13229e-09
6.2543e-09
9.92602e-09
1.31096e-08
2.0454e-08
2.12743e-08
7.49126e-09
1.06765e-08
1.86683e-08
3.6777e-08
3.37436e-08
3.92815e-08
7.49657e-08
1.22775e-07
1.01426e-07
3.25258e-07
1.47753e-07
7.67823e-08
3.30041e-07
4.18683e-07
2.71693e-08
6.30024e-08
7.62524e-08
2.02593e-07
2.63509e-07
2.61035e-07
1.02718e-07
1.3983e-08
3.25702e-08
7.02991e-07
4.46061e-07
1.56151e-07
1.5922e-06
2.58692e-07
2.26274e-07
7.02255e-06
9.35243e-06
5.17741e-06
7.12953e-06
7.00182e-06
1.14707e-06
3.89658e-07
5.3509e-07
1.90057e-06
2.20355e-06
1.43082e-06
5.45579e-07
4.40237e-07
1.58854e-07
5.09565e-07
9.564e-06
5.61962e-06
9.10067e-06
2.41956e-06
9.78299e-07
7.56233e-07
1.01259e-05
6.98851e-06
1.07877e-05
1.82458e-05
8.27438e-06
2.31539e-06
7.82178e-07
2.77954e-06
4.10368e-06
3.0865e-06
2.61425e-06
3.15794e-06
1.15691e-06
1.39269e-06
5.65045e-06
1.03838e-05
8.95808e-06
1.16221e-05
1.23004e-05
1.60937e-06
1.21879e-05
1.72259e-05
1.66137e-05
1.80836e-05
1.5465e-05
2.07446e-05
1.27227e-05
4.55596e-06
1.58897e-05
1.91019e-05
2.30296e-05
2.8604e-05
1.45164e-05
2.87006e-06
4.05391e-06
6.39515e-06
2.87143e-06
9.8364e-06
6.82618e-06
1.49127e-06
1.70462e-05
4.04425e-05
3.66584e-05
2.30868e-05
5.48173e-06
8.73119e-06
1.06134e-05
2.64954e-06
1.50328e-05
3.4419e-05
2.44651e-05
2.04799e-05
1.42511e-05
6.72516e-06
3.31264e-06
4.36104e-06
8.3965e-06
1.11849e-05
1.01864e-05
5.20956e-06
3.05276e-06
4.48796e-05
2.77716e-05
6.02965e-05
1.49241e-05
2.75847e-06
5.44053e-06
4.33318e-06
5.49129e-06
1.19474e-05
6.74359e-06
1.11125e-05
1.18383e-05
6.01471e-06
2.8525e-06
2.35703e-06
2.15279e-05
2.42525e-05
9.35553e-06
8.53645e-06
9.25259e-06
2.71733e-05
5.28132e-06
1.16609e-05
1.21412e-05
5.64186e-06
6.5985e-06
1.95191e-05
4.71599e-06
5.10496e-06
3.25825e-06
4.95303e-06
5.81416e-06
3.85356e-06
3.71181e-06
9.97508e-06
3.74364e-06
1.29852e-05
5.52419e-06
8.38022e-06
1.80109e-05
8.57214e-06
1.446e-05
6.87429e-06
1.65294e-05
6.91163e-06
1.53333e-05
1.11803e-05
9.53492e-06
1.08507e-05
4.53796e-06
1.37683e-06
4.00088e-06
3.86959e-06
2.87158e-06
1.89062e-05
8.05148e-06
1.10462e-05
7.29839e-06
6.99942e-06
1.47924e-05
1.08062e-05
6.87946e-06
4.04225e-06
1.22631e-05
1.05434e-05
3.04825e-05
1.3758e-05
4.41229e-06
3.99512e-06
6.93658e-06
2.3621e-06
5.12473e-06
7.99401e-06
5.71762e-06
4.6464e-06
7.67533e-06
1.08176e-05
1.92982e-05
3.31803e-06
4.40215e-06
2.91063e-06
1.92288e-05
1.91374e-05
8.33207e-06
7.23516e-06
9.65373e-06
1.2296e-05
1.7051e-05
7.56575e-06
7.4166e-06
9.59046e-06
2.44086e-06
2.76463e-06
2.26308e-06
1.04041e-05
5.43745e-09
2.22429e-08
1.09888e-07
6.95774e-07
8.25384e-08
1.33739e-07
3.31962e-08
1.00951e-08
4.58762e-08
5.41431e-08
2.1532e-08
6.67682e-09
6.70612e-09
2.9518e-09
7.04291e-10
2.78347e-09
1.19247e-09
8.69428e-09
2.42769e-08
9.50092e-09
1.06073e-08
1.82242e-07
1.60227e-07
1.43552e-06
2.41097e-07
4.1709e-07
1.04561e-07
2.8139e-08
1.0912e-07
8.73309e-08
2.64134e-08
1.70001e-08
1.86675e-08
1.06073e-08
2.54774e-09
1.93072e-08
1.20921e-08
1.82842e-08
7.4227e-08
3.42611e-08
2.20004e-07
2.294e-06
4.32525e-06
1.93381e-06
1.9619e-06
1.00102e-05
7.34825e-06
4.90003e-06
1.87341e-06
1.71717e-07
8.42619e-08
5.85689e-08
7.03169e-08
4.54463e-08
2.66635e-08
3.70943e-07
7.54857e-07
2.45622e-07
3.812e-07
4.78781e-07
3.87965e-06
3.13504e-06
6.11693e-06
7.94397e-06
6.12439e-06
1.83221e-05
3.22046e-05
2.95702e-05
1.10576e-05
1.44917e-05
3.25593e-06
3.61019e-06
1.14117e-06
1.06266e-06
3.84128e-07
3.98237e-07
2.81727e-06
2.26312e-06
3.00322e-06
5.05067e-06
4.6659e-06
4.3984e-06
7.30846e-06
1.18788e-05
2.76839e-06
1.23428e-06
9.58204e-06
3.30107e-05
1.83704e-05
6.59997e-06
1.17882e-05
1.10821e-05
3.70788e-06
1.47624e-06
3.06324e-06
5.24389e-06
3.89872e-06
3.33727e-06
3.51654e-06
3.14093e-06
3.60935e-06
4.53531e-06
5.58285e-06
5.92964e-06
4.72868e-06
6.57275e-06
5.18078e-06
4.27438e-06
9.70907e-06
1.16077e-05
6.04896e-06
1.26741e-05
9.45372e-06
7.25807e-06
3.12617e-06
5.48467e-06
8.67158e-06
7.78736e-06
9.85226e-06
2.71472e-06
5.49848e-06
3.70141e-06
3.259e-06
4.00553e-06
3.37516e-06
7.14798e-06
1.60975e-05
1.02928e-05
8.48164e-06
1.01477e-05
5.095e-06
1.85125e-05
1.35826e-05
1.17937e-05
5.80499e-06
2.79759e-06
5.79247e-06
5.74624e-06
6.8478e-06
1.62882e-05
1.68816e-05
2.40127e-06
3.59909e-06
1.40404e-05
2.70112e-06
2.215e-06
3.33109e-05
2.61468e-05
4.63306e-06
8.43282e-06
1.7564e-06
7.11349e-06
4.74104e-06
5.05929e-06
1.29519e-05
2.2598e-05
9.90612e-06
1.38215e-06
1.35125e-06
1.05198e-05
1.17451e-05
2.23814e-06
5.87224e-06
5.37076e-06
6.08431e-06
2.77817e-05
1.64651e-05
2.58582e-05
8.91139e-06
1.77066e-06
4.83746e-06
4.563e-06
3.1083e-06
6.31313e-06
1.52343e-05
1.36105e-05
3.35259e-05
3.12122e-06
1.09754e-05
7.12371e-06
5.21332e-06
3.88105e-06
5.27837e-06
7.39695e-06
5.79882e-06
9.25654e-06
9.31253e-06
4.55161e-06
1.87173e-05
1.01368e-05
2.64178e-06
6.63345e-06
4.59196e-06
5.81898e-06
3.06319e-05
6.69297e-06
2.51071e-05
5.77655e-06
4.01533e-06
4.55451e-06
2.28297e-05
3.38788e-05
4.95395e-06
7.68081e-06
1.60312e-05
2.17758e-05
1.56456e-05
6.28953e-06
3.49854e-06
3.08976e-06
2.13979e-06
7.94791e-06
4.33222e-06
6.59602e-06
7.16893e-06
5.60999e-06
4.1472e-06
3.67087e-06
1.36731e-05
6.33136e-06
6.51315e-06
9.07224e-06
8.86056e-06
3.48135e-06
6.69065e-06
9.04985e-06
4.10262e-06
2.70329e-06
4.33741e-06
7.23302e-06
8.91278e-06
9.41551e-06
1.21998e-05
2.18752e-05
1.74539e-05
1.77993e-05
5.75375e-06
4.70805e-06
6.75775e-06
6.37616e-06
3.79862e-09
1.79559e-08
6.5014e-09
2.34488e-08
1.20115e-07
1.90174e-07
4.27713e-08
1.83195e-07
1.64072e-07
4.7252e-08
5.14151e-09
3.11394e-09
1.85504e-08
9.11135e-09
1.54293e-09
1.29608e-08
3.45731e-09
1.11886e-08
2.77259e-08
1.01537e-08
5.63285e-09
4.34201e-08
3.20654e-08
1.08884e-07
3.26876e-07
4.31239e-07
1.22259e-07
5.7227e-07
4.34001e-07
6.35082e-08
8.52759e-09
1.78106e-08
5.01624e-08
2.23736e-08
1.16789e-08
3.68314e-08
1.34781e-08
6.28942e-08
5.07283e-08
2.46893e-08
1.00605e-08
1.21311e-07
2.06125e-06
1.35891e-06
2.82896e-07
1.36407e-06
9.51604e-07
2.4312e-06
2.94664e-06
1.36403e-06
5.93322e-07
1.02543e-07
1.5962e-07
2.76189e-07
1.67679e-07
8.70489e-08
1.46911e-07
1.05562e-06
6.18849e-07
5.76985e-08
1.22082e-06
1.4169e-07
3.55735e-07
4.25556e-06
7.19469e-06
3.58445e-06
4.57866e-06
7.67413e-06
7.73436e-06
6.70193e-06
5.40377e-06
6.50248e-06
6.83797e-06
7.49695e-06
5.43827e-06
1.55029e-06
5.70654e-07
2.69321e-06
4.72379e-06
2.47881e-06
2.83447e-06
1.34502e-06
6.77175e-06
1.28047e-06
5.2029e-06
5.46928e-06
6.43388e-06
1.29816e-05
2.11975e-05
8.76817e-06
1.16129e-05
8.28583e-06
4.02986e-06
1.75044e-06
3.77548e-06
6.27703e-06
3.25138e-06
8.56606e-06
8.82493e-06
2.19064e-06
4.47181e-06
3.31018e-06
3.43258e-06
5.25662e-06
3.0396e-06
1.08974e-05
5.94342e-06
4.57496e-06
8.84403e-06
7.716e-06
9.94818e-06
1.87018e-05
8.71517e-06
1.20896e-05
8.5602e-06
4.95361e-06
4.49211e-06
1.90809e-06
3.94875e-06
3.44389e-06
4.85934e-06
5.81862e-06
1.09099e-05
6.37787e-06
6.83558e-06
1.20677e-05
1.77656e-05
5.15362e-06
3.77473e-05
1.05003e-05
1.53748e-05
1.18781e-05
1.84714e-05
1.28859e-05
9.74558e-06
4.76109e-06
4.45266e-06
7.09761e-06
6.89518e-06
4.25268e-06
5.42388e-06
7.67788e-06
7.18656e-06
5.49284e-06
8.47987e-06
1.04684e-05
6.68508e-06
5.27562e-06
2.31021e-05
9.16013e-06
7.93146e-06
4.72872e-06
1.67059e-05
2.01655e-05
7.37081e-06
1.22339e-05
4.39846e-06
8.96607e-06
6.96068e-06
7.46895e-06
9.51697e-06
1.1022e-05
2.92203e-05
1.17606e-05
8.75808e-06
8.68834e-06
7.74738e-06
1.00349e-05
3.80253e-06
3.99665e-06
5.65253e-06
4.36559e-06
3.35627e-06
6.69378e-06
1.32431e-05
1.20531e-05
5.1289e-06
1.10667e-05
1.58639e-05
9.73599e-06
6.52377e-06
7.97701e-06
1.78267e-05
1.52904e-05
1.1749e-05
5.92295e-06
1.10851e-05
9.82489e-06
1.78027e-05
7.65388e-06
5.69053e-06
7.92332e-06
5.75704e-06
1.54915e-05
1.52477e-05
9.75349e-06
2.01529e-05
5.6332e-06
1.12299e-05
9.44488e-06
4.7541e-06
6.50835e-06
1.20484e-05
2.84978e-05
9.02908e-06
1.26372e-05
1.20942e-05
5.87351e-07
5.92955e-06
3.34976e-06
2.96932e-06
1.06471e-05
7.92753e-06
2.21855e-05
1.79077e-05
1.21988e-05
5.11163e-06
3.41964e-06
6.40164e-06
4.67974e-06
8.64022e-06
6.86901e-06
3.1393e-06
4.70482e-06
2.69362e-06
3.36266e-06
2.41136e-06
3.12387e-06
1.57214e-06
2.57837e-06
1.4141e-05
2.3003e-05
1.35749e-05
4.88228e-06
9.55259e-06
4.68776e-06
1.27313e-05
1.25265e-05
1.37876e-05
5.10994e-06
1.07734e-08
2.29779e-08
3.39967e-08
1.59573e-08
6.76995e-08
3.81068e-08
7.42989e-09
3.33064e-08
2.55621e-07
2.25101e-07
1.91014e-08
2.2958e-09
3.16033e-09
1.07662e-08
4.62372e-09
9.2944e-09
2.02378e-08
3.14506e-08
1.36691e-07
5.29364e-08
4.05302e-08
2.00948e-07
2.06048e-07
4.89907e-08
2.84515e-07
1.32414e-07
3.38371e-08
9.16078e-08
5.24157e-07
4.45578e-07
4.67538e-08
1.78283e-08
1.43352e-08
3.81726e-08
3.87916e-08
2.44909e-08
3.29837e-08
5.50082e-08
2.48227e-07
1.11745e-07
8.99501e-08
7.76028e-07
3.08827e-06
2.07855e-06
6.68268e-07
4.86874e-07
3.80223e-07
2.13412e-06
4.16353e-06
5.26693e-07
8.3032e-08
1.40977e-07
9.17593e-08
8.53709e-08
2.17755e-07
1.45692e-07
2.29685e-07
3.20511e-07
7.32738e-07
2.57631e-07
1.84069e-07
5.92234e-07
2.86402e-06
4.99891e-06
3.57375e-06
1.27917e-06
5.06252e-06
2.28641e-06
3.56191e-06
7.33393e-06
5.22679e-06
3.4078e-06
5.43205e-06
1.19555e-05
3.89917e-06
2.04734e-06
1.46716e-06
6.58422e-07
2.71692e-06
2.94866e-06
2.33491e-06
3.76976e-07
1.12502e-06
3.92756e-06
6.12895e-06
2.42412e-06
3.39179e-06
4.82825e-06
6.51459e-06
3.35152e-05
3.49487e-05
2.30116e-05
5.75941e-06
1.38559e-05
1.76553e-05
4.46768e-06
3.6787e-06
6.57939e-06
8.25446e-06
4.73638e-06
3.94736e-06
9.22083e-06
8.56427e-06
3.07638e-06
3.23357e-06
4.23882e-06
4.9635e-06
8.50165e-06
1.35403e-05
3.71722e-05
7.61064e-05
5.77647e-05
6.3181e-06
5.61045e-06
4.93966e-06
6.74138e-06
3.26363e-06
2.54172e-06
3.96154e-06
1.57497e-05
4.84806e-06
7.39007e-06
4.79957e-06
6.69941e-06
9.86687e-06
2.00172e-05
1.05366e-05
4.03678e-06
1.09674e-05
7.56799e-06
1.67863e-05
4.07154e-05
5.05324e-05
2.37526e-05
4.40879e-06
1.07714e-05
9.70755e-06
5.3702e-06
3.12125e-06
1.24845e-05
3.64748e-06
3.33869e-06
7.83713e-06
1.11819e-05
1.4685e-05
1.0495e-05
1.78044e-05
9.79342e-06
6.20341e-06
3.71631e-06
6.33576e-06
8.65216e-06
2.93738e-05
7.16675e-05
1.64484e-05
9.64744e-06
1.25367e-05
3.74446e-06
6.22125e-06
6.06431e-06
8.26863e-06
3.58359e-05
2.84092e-05
8.0084e-06
1.04959e-05
1.18019e-05
1.65382e-05
2.11043e-05
5.27805e-06
3.53186e-06
9.34131e-06
5.23901e-06
4.29951e-06
2.48718e-05
1.66558e-05
1.15586e-05
6.17389e-06
2.02179e-05
2.63099e-05
3.64266e-06
1.93178e-05
1.11184e-05
8.14987e-06
7.90709e-06
1.13708e-05
9.82593e-06
7.72447e-06
6.63229e-06
4.78334e-06
2.5431e-06
2.01096e-05
2.5882e-05
6.61631e-06
1.35454e-05
1.20666e-05
6.93348e-06
3.73195e-06
9.36311e-06
2.91746e-05
1.3026e-05
8.94733e-06
9.82563e-06
8.82094e-06
2.02391e-05
1.50813e-05
4.16362e-06
4.57915e-06
3.61546e-06
3.84033e-06
5.4008e-06
4.65125e-06
1.9154e-05
1.49456e-05
1.32829e-05
3.52412e-06
3.99648e-06
4.97187e-06
7.32866e-06
1.10245e-05
6.44884e-06
1.37164e-05
1.12268e-05
3.76e-06
1.03527e-05
6.17877e-06
3.26837e-06
3.35514e-06
2.23817e-06
2.54211e-06
4.97816e-06
2.68779e-05
3.8083e-05
1.89582e-05
2.65671e-06
4.8819e-06
4.28455e-06
9.20169e-06
5.37139e-06
9.1514e-06
6.6019e-06
6.24554e-09
1.42714e-08
3.23839e-08
2.17954e-08
7.39753e-08
3.88175e-08
3.63127e-09
3.37428e-08
9.86063e-08
2.89371e-08
5.80562e-09
3.03653e-10
1.67443e-09
5.52199e-09
6.084e-09
2.59268e-09
1.89872e-09
1.98095e-08
5.63357e-08
1.83616e-08
4.12542e-08
1.11551e-07
9.0033e-08
2.04956e-08
8.18253e-08
3.60679e-07
1.54067e-08
1.30882e-07
3.78646e-08
1.83692e-08
1.75368e-08
8.22788e-09
2.9873e-08
1.33676e-08
1.85587e-08
6.24975e-09
6.84251e-09
3.44405e-08
1.17691e-07
2.81333e-08
4.37758e-07
1.80692e-07
2.10822e-07
5.82483e-07
8.0584e-07
8.45516e-07
1.30204e-07
5.11381e-07
8.46976e-07