/*--------------------------------*- C++ -*----------------------------------*\
| =========                 |                                                 |
| \\      /  F ield         | OpenFOAM: The Open Source CFD Toolbox           |
|  \\    /   O peration     | Version:  5.0                                   |
|   \\  /    A nd           | Web:      www.OpenFOAM.org                      |
|    \\/     M anipulation  |                                                 |
\*---------------------------------------------------------------------------*/
FoamFile
{
    version     2.0;
    format      ascii;
    class       volScalarField;
    location    "0";
    object      p;
}
// * * * * * * * * * * * * * * * * * * * * * * * * * * * * * * * * * * * * * //

dimensions      [0 2 -2 0 0 0 0];

internalField   nonuniform List<scalar> 
7200
(
3.58337e-05
3.92271e-05
0.000138632
0.00019484
0.00015908
0.000101397
0.000203089
0.000271186
0.000189805
0.000121489
3.52101e-05
3.89344e-05
0.000180266
0.000224966
0.000174435
0.000246586
0.000288706
0.000262423
0.000224526
0.000186559
3.02374e-05
3.43174e-05
0.000137105
0.00019736
0.000121698
9.99356e-05
0.000202677
0.000272512
0.000161786
9.05953e-05
3.35131e-05
8.90243e-05
0.000178718
0.000223701
0.000172257
0.00024628
0.000282598
0.000263188
0.00022246
0.00014123
-2.18274e-05
1.41359e-05
0.000128736
0.000190321
0.000120117
0.000122762
0.000249035
0.000277511
0.000164514
8.92801e-05
3.58892e-06
8.03098e-05
0.000205635
0.000194424
0.000163386
0.000246484
0.000293305
0.000250449
0.000210894
0.000132737
-6.1274e-05
8.69579e-07
0.000132839
0.000181675
0.000122172
9.83605e-05
0.000197485
0.000270854
0.000178937
9.15515e-05
1.26692e-05
6.14763e-05
0.000151304
0.000162177
0.000115181
0.000279073
0.000290833
0.000289391
0.000228168
0.000223856
-4.56758e-05
-8.79482e-05
0.000102011
0.000150329
0.000122198
9.60238e-05
0.000178397
0.000277327
0.000197573
0.000141412
4.00811e-06
8.91389e-05
0.000201655
0.000166702
6.04154e-05
0.000217652
0.000276897
0.000287674
0.000216729
0.000261924
3.77871e-05
-8.39351e-05
-3.01892e-06
0.000127558
0.000127481
9.71579e-05
0.000195146
0.00022852
0.000187984
0.000148673
5.93832e-06
0.000137781
0.000293865
0.000248988
4.94576e-05
0.000172391
0.00026297
0.000294545
0.000247349
0.000311801
0.000148064
-3.82635e-05
2.01807e-05
0.000140627
0.000150569
0.000100288
0.000145829
0.0002081
0.00014847
0.00010569
3.71633e-05
0.000140849
0.000289011
0.000335804
0.000129965
0.000136787
0.000241491
0.000294286
0.000267039
0.000272164
0.000221078
7.38059e-05
3.19663e-05
0.000138136
0.00012622
0.000100951
0.000136822
0.000206712
0.000159751
0.000114531
5.29376e-05
0.000142163
0.000288214
0.000346499
0.000160465
0.000139912
0.000210933
0.000291638
0.000284117
0.000259532
0.000216016
0.000153282
0.000122556
0.000142153
0.000131743
8.61062e-05
0.000156212
0.000213379
0.000177954
0.000156892
8.82475e-05
0.000175362
0.000239881
0.000291274
0.000185775
0.000135107
0.000196699
0.000246146
0.000297854
0.000232741
0.000168742
0.000159601
0.000160614
0.00017026
0.000131973
8.48597e-05
7.57691e-05
0.000133125
0.000182185
0.000179809
0.000137101
0.000142024
0.000175157
0.000279074
0.000220017
0.000122739
0.000180308
0.000230913
0.000274532
0.000222762
0.000185001
0.000151187
0.000154247
0.000157128
0.00013075
0.000100714
8.27933e-05
9.65575e-05
0.000130632
0.000162352
0.000182205
0.00014284
0.000168307
0.000288045
0.000221719
6.98382e-05
0.000137278
0.000215884
0.000237066
0.000220151
0.000203238
0.000125936
0.00010119
0.000122222
0.000136661
0.000137955
0.000115387
0.000121074
0.000146828
0.000191031
0.00020307
0.000174248
0.000153577
0.000208114
0.000219725
9.14081e-05
0.000118277
0.000197117
0.000212643
0.000216589
0.000178723
8.20731e-05
6.44867e-05
0.000130414
0.00015564
9.81103e-05
0.00013718
0.000147009
0.000113166
0.000121744
8.69781e-05
9.16709e-05
0.000213794
0.000296581
0.000286236
0.000302508
0.000370439
0.00037011
0.000305215
0.0002674
0.00026429
0.000186588
6.08075e-05
0.000158126
0.000161418
9.71762e-05
0.000136637
0.000127957
0.000112551
0.000111261
8.62583e-05
0.000127718
0.000213298
0.000302051
0.000287467
0.000300824
0.000344977
0.0002602
0.000206956
0.000269869
0.000134154
3.63411e-05
0.00011268
0.000150034
0.000136967
9.52555e-05
0.000109481
0.000124861
8.59274e-05
0.000114935
0.000120109
0.000148099
0.000223919
0.000302345
0.000288014
0.000298127
0.000350671
0.00022977
0.000207907
0.000204539
0.000246162
0.000163077
7.55551e-05
0.000110398
0.000125759
6.24499e-05
6.18803e-05
3.8754e-05
7.70558e-05
0.0001238
8.1795e-05
0.000118491
0.00017106
0.00028425
0.000266827
0.000288423
0.000319981
0.000368923
0.000211842
0.00018719
0.000221138
3.84405e-05
5.90308e-05
8.35818e-05
0.000108802
5.61427e-05
7.12829e-05
6.19767e-05
0.000107637
0.000139812
7.81433e-05
2.66889e-05
0.000106886
0.000236688
0.000249086
0.000253578
0.00028011
0.000243466
0.000229002
0.000336844
0.000192887
7.08326e-05
0.000105763
4.26444e-05
3.75192e-05
6.28666e-06
-1.99255e-05
3.43099e-05
8.25601e-05
0.000107216
9.50332e-05
2.33733e-05
4.58627e-05
0.000241065
0.000209213
0.000221509
0.000263403
0.000313889
0.000259289
0.000291698
0.00025829
0.000188093
0.000106502
7.14761e-05
9.5899e-05
9.78946e-06
6.74419e-05
7.42973e-05
5.47681e-05
0.000126634
9.6851e-05
5.06889e-05
9.0179e-05
0.00015126
0.000270845
0.000212173
0.000198394
0.000223998
0.000272115
0.000405147
0.000319176
0.000159323
8.16773e-05
9.56113e-05
0.000126539
7.24191e-05
0.000110782
7.70894e-05
0.00010557
5.96323e-05
9.03871e-05
8.42487e-05
5.82103e-05
0.000171572
0.000235562
0.00019357
0.000209919
0.000258516
0.000289804
0.000346486
0.000289046
0.000233227
0.000192534
0.000179579
5.12482e-05
3.70362e-05
0.000110809
0.000152105
9.33109e-05
9.0065e-05
9.09585e-05
0.000118226
0.000134751
0.000199507
0.000182079
0.000132846
0.000144827
0.000246112
0.000278555
0.000269277
0.000249667
0.000243471
0.000300169
0.000223035
7.83533e-05
3.59456e-05
9.05935e-05
9.97143e-05
0.00011081
0.000135287
0.000116711
0.00013177
0.000197054
0.000232672
0.000164131
0.000153192
0.000181526
0.000178113
0.000233373
0.000220145
0.000231491
0.000219506
0.000223196
0.000199176
0.000137168
8.82445e-05
9.16504e-05
8.32684e-05
9.67484e-05
0.000151835
0.000166745
0.000139228
0.000164018
0.00020555
0.000198284
0.000137353
0.000154345
0.00023382
0.000232036
0.00024055
0.000219594
0.000189356
0.000161231
0.000160529
0.000147645
0.000151206
0.000130006
0.000132283
0.000142705
0.00016393
0.000155863
0.000142793
0.00015225
0.000175947
0.000187176
0.000151337
0.000139754
0.000218079
0.000229373
0.000224207
0.000419341
0.000563227
0.000393821
0.000232458
0.000193519
0.000138198
9.67828e-05
6.93724e-05
8.3006e-05
0.00014101
0.000166083
0.000177263
0.000205762
0.000254127
0.000228567
0.000164578
8.7258e-05
2.75054e-05
7.75292e-05
0.000162562
0.00041663
0.000520564
0.000396766
0.000212229
0.000193721
0.000137833
8.4694e-05
6.85648e-05
0.000106121
0.000140658
0.000165637
0.000183825
0.000227415
0.000258201
0.000201145
0.000163009
4.71535e-05
2.35072e-05
7.4416e-05
0.000158436
0.000513327
0.000582372
0.000407628
0.000212756
0.000193236
0.000135308
9.38601e-05
6.55042e-05
0.000105681
0.000140635
0.000162259
0.000170496
0.000203363
0.000258129
0.000221546
0.000150659
3.38388e-05
1.0095e-05
8.87486e-05
0.000145218
0.000389946
0.00062417
0.000446703
0.000212629
0.000169582
0.000106067
7.32162e-05
5.60498e-05
0.000109469
0.00016228
0.000164994
0.000142903
0.000199051
0.000253047
0.00019209
9.14565e-05
4.99566e-05
6.79424e-06
5.47413e-05
0.000112025
0.000337785
0.000612503
0.000490859
0.000249811
0.000164014
0.000103258
8.52136e-05
5.03473e-05
7.66565e-05
0.000146671
0.000159477
0.000124352
0.000131909
0.000226358
0.000158651
5.12606e-05
6.83475e-05
3.69086e-05
5.98622e-05
0.000100908
0.000269254
0.00057725
0.000518611
0.000261528
0.000145308
9.98988e-05
9.05576e-05
4.96196e-05
6.28726e-05
8.94302e-05
0.000144712
0.000117801
9.32596e-05
0.000210554
0.000124636
2.174e-05
8.23335e-05
7.97791e-05
7.56918e-05
0.000127742
0.000310092
0.000427951
0.000509353
0.000285458
0.000113976
8.81113e-05
0.000104206
4.38574e-05
-5.69286e-06
1.28962e-05
0.000108291
0.000105671
5.13589e-05
0.000163621
8.33213e-05
3.14096e-05
6.88332e-05
8.72087e-05
9.88909e-05
0.000124245
0.000271758
0.000357353
0.000432233
0.000205148
0.000115874
6.11622e-05
0.00014131
4.96039e-05
1.28927e-06
-2.27845e-06
6.89452e-05
7.75807e-05
4.4763e-05
0.000146624
9.02598e-05
7.2029e-05
9.01597e-05
0.000123047
0.00012058
0.000125198
0.00024104
0.00029242
0.00033408
0.000223854
0.000111051
6.49181e-05
0.000147704
0.000132498
0.000100871
7.6053e-05
0.00010244
0.000136956
0.00016086
0.000156027
8.88349e-05
6.97575e-05
0.000133374
0.000166557
0.000154204
0.000138317
0.000227966
0.000277434
0.000275019
0.000243236
0.000211186
0.000136778
0.00012552
0.000115139
0.00013388
0.000151009
0.000118066
0.000136799
0.000194442
0.000192098
0.000120102
0.000120479
0.000159628
0.000186172
0.000172208
0.000182755
0.000187249
0.000230859
0.000228529
0.000244414
0.000195106
0.000117094
0.000101724
0.000141409
0.000163112
0.000183103
0.000198425
0.000160155
0.000154408
0.000167686
0.000163972
0.000168994
0.000161288
0.000218245
0.000227147
0.000218018
0.000213102
0.00021125
0.000216985
0.000203701
0.000175707
0.000160819
0.00014483
0.000153745
0.000175593
0.000197549
0.000180722
0.000143988
0.000146919
0.000163712
0.000166783
0.000144597
0.000176966
0.000213046
0.000225134
0.000230114
0.000482763
0.000498706
0.000326903
0.000209722
0.000211877
0.000168672
0.000112022
8.30297e-05
0.000117114
0.000172035
0.000186021
0.000179058
0.000188145
0.000211513
0.000160588
7.66844e-05
4.35901e-05
5.32784e-05
0.000152077
0.000285861
0.000520677
0.00050121
0.000328019
0.000209601
0.00021181
0.000168187
0.000111823
8.2848e-05
0.000142802
0.000172488
0.000183374
0.000178659
0.000200192
0.000212341
0.000160136
5.6685e-05
4.04511e-05
8.05051e-05
0.000149369
0.000283706
0.000493735
0.0005108
0.00033275
0.000205279
0.000203006
0.000166574
9.51929e-05
8.18466e-05
0.000144279
0.000183372
0.000180327
0.00017252
0.000197968
0.000202404
0.000113044
6.04411e-05
2.79023e-05
4.27053e-05
0.000141157
0.000275402
0.000562497
0.00047982
0.00035088
0.000204222
0.000215041
0.000140242
0.000113056
8.78698e-05
0.000123408
0.000182326
0.000185484
0.000150238
0.000181671
0.00020184
0.000143125
2.68078e-05
3.21966e-05
4.33788e-05
0.000137299
0.000324746
0.000569714
0.000505926
0.000373187
0.000197891
0.000209691
0.000170701
0.000124546
0.000100679
0.000169995
0.000198732
0.000175769
0.000135469
0.00016673
0.000201351
0.000146288
4.17216e-05
5.3267e-05
2.93434e-05
0.000127028
0.000202737
0.000492879
0.000506103
0.00039858
0.000164996
0.000200062
0.000165501
0.000137666
0.00010235
0.000167472
0.00020885
0.000180603
0.000112182
0.000119314
0.000207036
9.9112e-05
5.00949e-05
8.08952e-05
2.86008e-05
2.88603e-05
0.000152508
0.000344978
0.000466893
0.000354397
0.0001248
0.000167994
0.000128935
0.00014333
6.85307e-05
0.000117987
0.000145892
0.000174397
0.000101926
0.000142489
0.000209281
9.65658e-05
6.176e-05
7.75374e-05
6.88325e-05
3.87783e-05
7.18112e-05
0.000289908
0.000371323
0.000419899
0.000213854
0.000111986
0.000110078
0.000205069
0.000129162
7.24236e-05
8.58414e-05
0.000123893
0.000110317
0.000128876
0.000163248
7.74609e-05
8.69618e-05
9.2323e-05
0.000105885
7.91566e-05
5.78157e-05
0.000214748
0.000327833
0.000364227
0.000266943
0.000131764
0.000134216
0.000169364
0.00016611
0.00014359
0.00011393
9.86858e-05
0.000142739
0.00017294
0.000159572
3.96437e-05
0.000109796
0.000144633
0.000182646
0.000161343
7.33754e-05
0.000193463
0.000257391
0.000241226
0.000235246
0.000195624
0.000167905
0.000126784
0.000154957
0.000200372
0.000182631
9.95392e-05
0.000100869
0.000194802
0.000187146
9.45977e-05
0.000106279
0.000161888
0.00023065
0.000226704
0.000130012
0.000169775
0.000219301
0.000239971
0.000241997
0.000192428
0.000119545
0.000102654
0.000160165
0.000185364
0.000210944
0.000141187
8.69264e-05
0.00011126
0.000140726
0.000128106
0.000154677
0.000177988
0.000239736
0.000252758
0.000187909
0.000207288
0.000215087
0.0002308
0.000202028
0.000192353
0.000179351
0.000128665
0.000147304
0.000209192
0.000228906
0.000196191
0.000141892
0.000130044
0.000153991
0.000148013
0.000131387
0.000177744
0.000211413
0.000219771
0.000227879
0.000306211
0.000260618
0.000169232
0.000142203
0.000264753
0.000242875
0.000114115
7.31967e-05
0.000144839
0.000218486
0.00024651
0.000226852
0.00018003
0.000123351
0.00010944
0.000149414
0.000199204
0.000194914
0.000230514
0.000280028
0.000215273
0.000259723
0.000168015
0.000140168
0.000265699
0.000244669
5.7126e-05
7.2462e-05
0.000178867
0.000219066
0.000287231
0.00026891
0.000200781
0.000109343
0.000108632
0.000169493
0.000238958
0.000195192
0.000230108
0.000280187
0.000304263
0.000180357
0.000163327
0.000133094
0.000285302
0.000180686
8.97821e-05
5.4107e-05
0.000194517
0.000270252
0.000288973
0.000251863
0.000200405
9.97793e-05
0.000118701
0.000205597
0.00024034
0.000233808
0.000250834
0.000288766
0.000174047
0.000140866
0.000159289
0.000158284
0.000296656
0.00026773
8.97001e-05
7.3706e-05
0.000146763
0.000244583
0.000289234
0.000201464
0.000146027
9.28217e-05
0.000106623
0.000217782
0.000255195
0.000230155
0.000221836
0.000235245
0.000150481
0.000121976
7.76906e-05
8.43843e-05
0.000305157
0.000251444
9.0678e-05
4.66638e-05
0.000209669
0.000227236
0.000285569
0.00026643
0.00017188
0.000123276
0.000135998
0.000189618
0.000258815
0.000164631
0.000229575
0.000233518
0.000102677
0.000112941
9.85648e-05
9.08167e-05
0.000231718
0.000242827
4.53925e-05
-3.11194e-06
0.00017529
0.000228458
0.000269917
0.000273248
0.000183319
0.000135377
0.000141109
0.000191616
0.000268439
0.000124878
0.000130914
0.000190094
0.000223653
0.000193805
0.000105461
9.45585e-05
0.000252745
0.000195235
0.000134666
5.96113e-07
6.71906e-05
0.000188363
0.000230417
0.000255286
0.000191904
0.000153644
0.000116628
0.000194108
0.000256633
0.00017661
0.000191265
0.000208528
0.000190908
0.000172145
0.000164366
9.3425e-05
0.000248857
0.000241639
0.000169224
6.6305e-05
2.17821e-05
0.0001114
0.000195115
0.000180044
0.000170502
0.000142121
7.73037e-05
0.000133598
0.000199633
0.000250166
0.00015835
0.000191951
0.000186338
0.0002194
0.000239066
0.000123896
0.000199152
0.000251343
0.000120438
0.000100232
-3.04777e-05
1.08191e-05
2.70161e-05
0.000185906
0.000210068
0.000194659
0.000100634
0.000140605
0.00012826
0.000260536
0.000189673
9.53935e-05
7.1786e-05
0.000130582
0.000162875
0.000209486
0.000223643
0.000248054
0.000123394
9.02186e-05
7.30813e-05
-3.24218e-05
-4.50512e-05
8.55421e-06
0.000151147
0.000259012
9.93171e-05
0.00013884
0.000185064
0.000276377
0.00025153
7.28957e-05
0.000105753
0.000174615
0.000251341
0.000237704
0.000228756
0.000169425
0.000123452
0.000157764
0.000191152
0.000130223
-1.28384e-05
-6.7397e-05
-7.84881e-05
1.7602e-05
3.7331e-05
0.000124539
0.000206558
0.000247718
0.000245489
0.000178204
0.00019538
0.000193121
0.000223896
0.00021459
0.000208477
0.000229071
0.000140234
0.00012766
0.000227476
0.000230616
0.000175667
0.000133787
9.29083e-05
4.50677e-05
3.96512e-05
0.000128675
0.000185994
0.000216738
0.000222838
0.00022289
0.000103716
0.000118801
0.000147816
0.00016203
0.000223744
0.000190698
8.71439e-05
0.000120015
0.000156352
0.000242389
0.000320015
0.000342191
0.000285617
0.000113565
7.72048e-05
0.000160737
0.000245823
0.000265289
0.000209036
0.000142708
0.000102199
0.000134219
0.000147784
0.000161999
0.00022603
0.000190891
8.69713e-05
0.000143604
0.000175623
0.00024232
0.0003207
0.000342685
0.000217431
7.33593e-05
0.000104832
0.00019802
0.000246693
0.00024954
0.000209552
0.000124508
9.38298e-05
0.000131458
0.000150185
0.000187935
0.000226644
0.000190974
8.62549e-05
0.000145069
0.000149965
0.000287124
0.000321547
0.000342675
0.000214922
0.000104985
0.000101797
0.0001606
0.000271581
0.000252899
0.000208317
0.000117036
6.72163e-05
0.000119524
0.000154
0.000157265
0.000224812
0.000183512
6.52589e-05
9.03254e-05
0.000117764
0.000236763
0.000311928
0.000325644
0.000273805
7.75174e-05
5.12784e-05
0.000159747
0.000284208
0.000286301
0.000203604
8.85672e-05
5.65635e-05
0.000110332
0.000158542
0.00017358
0.000215563
0.000164591
3.5283e-05
3.80318e-05
5.51962e-05
0.000298404
0.000313136
0.000294128
0.000239567
-2.72228e-07
7.20816e-05
0.000211283
0.000298654
0.000299921
0.000153954
7.20299e-05
6.03102e-05
0.000124401
0.000163323
0.000164199
0.000187479
7.64184e-05
-2.0226e-05
-1.34793e-05
8.02915e-05
0.00030439
0.000321526
0.000279413
0.000212167
-1.46372e-05
-1.53682e-05
0.00013951
0.000301279
0.000321931
0.000204637
8.87308e-05
4.55266e-05
0.000129657
0.000170218
0.000165216
0.000185721
6.95249e-05
-5.99972e-05
-4.23873e-05
5.19438e-05
0.000280295
0.000320897
0.000293862
0.00012937
-2.81783e-05
2.73809e-05
0.000195854
0.000302353
0.000320918
0.000228458
7.23854e-05
5.84077e-05
0.000121635
0.000185674
0.000187771
0.000181285
9.76199e-05
0.000120568
2.41968e-05
2.64736e-05
0.000227012
0.000288049
0.000315143
0.000158526
2.20541e-05
5.39523e-06
0.00012784
0.000312121
0.000339838
0.000254542
0.000133589
8.23598e-05
7.3891e-05
0.000171785
0.000209864
0.000160327
0.000133956
0.000204638
9.79719e-05
5.87711e-05
0.000163653
0.000258414
0.000282992
0.000252372
8.19454e-05
3.05092e-05
0.000129897
0.000223328
0.000301533
0.000262384
0.000161093
0.000129823
0.000122897
0.000206925
0.000207041
0.000183388
0.000152187
0.000178274
0.000120501
6.83673e-05
0.00011103
0.000150563
0.000205257
0.000165567
9.82414e-05
7.17188e-05
0.000131875
0.000230873
0.000287631
0.000254884
0.000197465
0.000126825
0.000174982
0.000229277
0.000197148
0.000175582
0.000157647
0.000149696
0.000128825
0.000109997
0.000141619
0.000130669
0.000130348
0.000142821
0.000123212
0.000104894
0.000190557
0.000190095
0.000235838
0.000241817
0.000203983
0.000191905
0.000151956
0.000173625
0.000194897
0.000188319
0.000196791
0.000146587
0.000141878
0.000161312
0.00017945
0.000185075
0.000159315
0.00013353
0.000126386
0.000111822
0.000122548
0.00019527
0.000211635
0.000226302
0.000205336
8.59868e-05
0.000113762
0.000141439
0.000176329
0.000228403
0.000140196
1.72528e-05
0.000149435
0.000198195
0.000253334
0.000344178
0.000397588
0.000365185
0.000164098
9.13959e-05
0.000147893
0.000210782
0.00023667
0.000162361
9.86148e-05
8.3899e-05
0.000129182
0.000141183
0.000175324
0.000209338
0.000139875
1.46384e-05
0.000151125
0.000200366
0.00025295
0.000358898
0.000398103
0.00029106
0.000163442
9.03411e-05
0.000171586
0.000210557
0.000216598
0.000162124
9.76099e-05
6.97649e-05
0.000104138
0.000140837
0.000169269
0.000229139
0.000140508
4.5359e-06
0.000157768
0.000200038
0.000303434
0.000343796
0.000417405
0.00037122
0.000157798
8.46537e-05
0.000143725
0.000209376
0.000217744
0.000122047
8.7736e-05
2.17736e-05
0.000100477
0.000149893
0.000196814
0.000219601
0.000144613
-2.52032e-05
0.000179568
0.000191704
0.000249451
0.000341389
0.000419154
0.000282173
0.000131365
6.08329e-05
0.00015353
0.000243197
0.000266314
0.000112371
4.82418e-05
-1.17244e-05
6.65215e-05
0.000159176
0.000179321
0.000194558
0.00013912
-2.24193e-05
4.41439e-05
0.000131243
0.000286721
0.000340237
0.000414652
0.000363715
3.67144e-05
2.78446e-05
0.000115625
0.000251444
0.000295201
0.000202008
6.55456e-05
-9.53505e-06
5.36756e-05
0.000128599
0.000200865
0.000172907
0.000105293
-4.21288e-05
4.42158e-05
0.000114704
0.000173816
0.000301437
0.000417517
0.00023172
-2.32816e-05
-1.97308e-05
1.28762e-05
0.000158686
0.000353968
0.000282186
6.19338e-05
1.8505e-05
8.49076e-05
0.000165369
0.000219197
0.000153086
-3.3552e-05
-0.000172705
-4.22404e-05
0.000127312
0.000160469
0.000267463
0.000409782
0.000227209
3.55277e-06
-7.09581e-05
3.67485e-05
0.000150506
0.000345054
0.000317179
0.000123974
4.78611e-05
7.75308e-05
0.00018782
0.000207989
0.000213333
-5.10929e-06
-4.39593e-05
-8.02161e-05
7.97269e-05
0.000210276
0.000252366
0.000404336
0.000252771
3.78359e-05
-2.11809e-05
9.77125e-05
0.000176904
0.000308247
0.000289668
0.000201708
6.43195e-05
0.00010834
0.000199091
0.000211603
0.000192085
2.74991e-05
0.000135699
7.05239e-05
6.92754e-05
0.000142638
0.000208411
0.000316347
0.000337208
6.61738e-06
3.72216e-05
0.000143199
0.000202756
0.000288279
0.000256712
0.000174533
0.0001344
0.000119598
0.00021283
0.000197307
0.000188477
0.000132085
0.000125258
0.000108426
8.12451e-05
0.000151309
0.000174298
0.000223861
0.000199741
0.000112239
6.96666e-05
0.000137298
0.000230971
0.000274377
0.000258167
0.000185479
0.00017615
0.000165862
0.000195251
0.00020741
0.000168298
0.000141046
0.000138009
0.00014328
0.00012526
0.000156795
0.000148529
0.000173828
0.000175886
0.000148814
0.000120174
0.00018727
0.000193475
0.00022923
0.000242656
0.000236174
0.000245817
0.000217861
0.000184542
0.000195493
0.000193292
0.000190105
0.000144512
0.000136073
0.000156168
0.000188339
0.000184872
0.000148421
0.000135179
0.000155642
0.000138739
0.000178252
0.000214357
0.00021668
0.000223564
0.000225381
0.000222907
0.000194068
0.000167274
0.000556743
0.000339125
3.38782e-05
-0.000121513
-0.000148922
0.000126652
0.000415849
0.000498865
0.000408364
0.000394481
0.000245108
0.000137204
0.000179156
0.000209865
0.00019045
0.000179141
0.000170365
0.000227362
0.000173568
0.000162827
0.000594732
0.000341997
2.88197e-05
-0.000126288
-0.00015318
0.000246117
0.000492134
0.000456245
0.000414109
0.000394855
0.000245175
0.000136984
0.000179515
0.000209465
0.000188951
0.000177296
0.000169434
0.000230317
0.000175688
0.000155083
0.000552835
0.000355684
-4.64823e-05
-0.000199657
-0.000169217
0.000109189
0.000486491
0.000457648
0.000415283
0.000396408
0.000185746
0.000143085
0.000202309
0.000211109
0.000173632
0.000165676
0.000170901
0.000215606
0.000187434
0.000188137
0.000479092
0.000398139
-4.91371e-05
-0.000217923
-0.000225953
4.73975e-05
0.000401855
0.000443299
0.000381397
0.000394964
0.000235012
0.000146024
0.000193441
0.000217892
0.000179585
0.000151523
0.0001469
0.000193431
0.000214885
0.000191205
0.000379019
0.000185067
-2.62565e-05
-8.89416e-05
-0.000235897
0.000100751
0.000238857
0.000365763
0.000325061
0.000358812
0.000193319
0.000146066
0.000203387
0.000222417
0.000187908
0.000153926
0.0001321
0.000233015
0.000236512
0.000223088
0.000375055
0.000334013
-1.52485e-05
-3.91804e-05
-0.000150122
8.43543e-05
0.000267442
0.000295593
0.000265512
0.000290558
0.000123911
9.68326e-05
0.000231478
0.000219048
0.000184758
0.000155235
0.00016712
0.000232712
0.000261514
0.000235982
0.00025957
0.000212694
5.90438e-05
4.86188e-05
-8.79058e-05
5.90226e-05
0.000236028
0.000292787
0.000291273
0.000280709
8.58535e-05
6.68212e-05
0.000277148
0.000207104
0.000189335
0.000162176
0.000173571
0.000181185
0.000236055
0.000241434
0.000221714
0.000201565
7.95604e-05
-3.20946e-05
-7.55738e-05
9.73016e-05
0.000193716
0.000301722
0.000323515
0.000254017
5.48398e-05
5.07676e-05
0.000182056
0.00023285
0.000209363
0.000179389
0.000156979
0.0001736
0.000205953
0.000214151
0.000210418
0.000203301
2.39133e-05
2.08208e-05
1.52951e-05
0.000134151
0.000191496
0.000276739
0.000307158
0.000303632
8.83564e-05
3.50166e-05
0.00013851
0.000186086
0.000242167
0.000227637
0.000204615
0.000172026
0.00019261
0.00019145
0.000190372
0.000165198
0.000107507
6.53937e-05
7.31162e-05
9.67564e-05
0.000176738
0.000248799
0.000263604
0.000246978
0.000136721
3.47451e-05
0.000159511
0.000181626
0.000228843
0.000220222
0.000236527
0.00016937
0.000140116
0.000176874
0.000186502
0.000167693
0.000103449
9.09388e-05
0.000109622
0.000151463
0.000196989
0.000220733
0.000219977
0.000215154
0.000162841
0.000110295
0.000185353
0.000237846
0.000239528
0.00020672
0.000230681
0.000224079
0.000205556
0.000202904
0.000218288
0.000201717
0.000187624
0.000160175
0.000145746
0.000167545
0.000194966
0.000205456
0.000165894
0.0001583
0.000156904
0.000122768
0.000177169
0.000233931
0.000222422
0.000216221
0.000223889
0.00022378
0.00022304
0.000232244
0.000165736
0.000102987
0.000244906
0.000167022
-7.9295e-05
0.000122657
0.000335101
0.000333913
0.000313234
0.000378478
0.000217628
8.89664e-05
0.00017331
0.000306801
0.000229641
0.000121097
0.000156822
0.00022448
0.000233204
0.000232798
0.000162811
0.000120941
0.000244261
0.000173341
-8.10376e-05
0.000215058
0.000367826
0.00029971
0.000365141
0.000380043
0.000150419
8.76906e-05
0.000172577
0.000309357
0.000230031
0.000117738
0.000155067
0.00022897
0.000231377
0.000205704
0.000122384
7.78434e-05
0.000240908
0.000197527
-9.47529e-05
0.000103569
0.000367721
0.000336461
0.000369118
0.000383719
0.000212749
8.11212e-05
0.000170583
0.000315958
0.000172241
0.000106498
0.000181909
0.000240352
0.00022179
0.000214881
0.000131424
3.58485e-05
0.000353045
0.000292141
-0.000161378
0.000102272
0.000342511
0.000325862
0.000373888
0.000322236
0.000134217
8.00848e-05
0.000258837
0.000339701
0.000206534
0.000117446
0.000144292
0.000264335
0.000222976
0.000143985
7.07404e-05
6.16991e-05
0.000336961
0.00038743
-0.000202734
-4.33263e-07
0.000250086
0.000276435
0.000226701
0.000299644
0.000176763
7.11292e-05
0.000185617
0.000338995
0.000213657
0.000156803
0.000205524
0.000290995
0.000227776
0.00014753
8.61261e-05
0.000141083
0.000147458
0.000194922
-0.0001663
9.22265e-05
0.000164039
0.000180365
0.000138055
0.000241568
7.02978e-05
-7.4703e-06
0.000199246
0.000354553
0.000263547
0.000140481
0.000231994
0.000285332
0.000222558
0.000167931
0.000155485
0.000198693
0.000193278
0.000287395
-9.56222e-05
3.53026e-05
0.000162558
0.000202572
5.77784e-05
9.35424e-05
1.6967e-05
-0.000121233
0.000378813
0.000412065
0.000244904
0.000126106
0.000218133
0.000249241
0.000188582
0.000173969
0.000210959
0.000254197
0.000171862
0.000134169
1.12842e-05
0.000130131
0.00022562
0.000365624
0.000291979
0.000107299
-5.47453e-06
-4.38671e-05
0.000360486
0.000392647
0.00017291
0.0001127
0.00020713
0.000205976
0.000160505
0.0001369
0.00017478
0.00019227
9.24059e-05
6.6495e-05
3.49097e-05
0.000157238
0.000229368
0.000284292
0.000336332
0.000316805
7.87315e-05
1.80002e-05
0.000236972
0.000354942
0.000184984
0.000154816
0.000186312
0.000172404
0.000153224
0.000152611
0.000175473
0.000153504
0.000112213
6.12991e-05
6.86925e-05
0.000131153
0.000203832
0.000233992
0.000236889
0.000228629
0.000131798
6.83768e-05
0.000182974
0.000238787
0.00020392
0.000172139
0.000210461
0.000192683
0.000170714
0.000167313
0.000164529
0.000179484
0.000111776
8.50715e-05
9.32058e-05
0.000139949
0.000171794
0.000219773
0.000212223
0.000203283
0.000154671
0.00012004
0.000206694
0.000261373
0.000242448
0.000182321
0.00020515
0.00019056
0.000198094
0.000206719
0.0002039
0.000196989
0.000187607
0.000162294
0.000137185
0.000153714
0.00016828
0.000164596
0.000148407
0.000178433
0.000178357
0.000142929
0.000197123
0.00023243
0.000218038
0.000207102
0.000203931
0.000216195
0.000246885
0.000232337
0.000124633
0.000120829
0.000273143
7.4956e-05
-4.47326e-05
0.000195569
0.00025759
0.000132224
0.000210372
0.000380719
0.00026114
0.00011302
0.000120912
0.000324459
0.000300086
0.000144868
0.000127852
0.000215417
0.000248542
0.000232012
0.00012153
0.00018342
0.000276123
7.57076e-05
-4.68666e-05
0.000242316
0.000254091
0.0001272
0.000312353
0.000382947
0.000201116
0.000111326
0.000118119
0.000359466
0.000303911
0.000142156
0.000123514
0.000212788
0.000250537
0.000191542
7.37854e-05
0.000173398
0.00028459
-6.80307e-05
5.7831e-05
0.000169793
0.000198988
7.82494e-05
0.00030728
0.000353341
0.000196792
0.000105824
0.00019327
0.000376316
0.000242534
9.46809e-05
0.000104527
0.000235599
0.000253414
0.000181117
3.82617e-05
7.18793e-05
0.000326852
0.00010072
-9.7947e-05
0.000175694
0.000110809
3.75026e-05
0.00016224
0.000338594
0.000183097
7.15266e-05
0.000201964
0.00037813
0.000251669
7.988e-05
0.000108367
0.000233113
0.000253135
0.000164423
3.2004e-05
0.00012752
0.000280269
0.000133419
-0.000166185
0.000176844
3.37238e-05
-0.000104555
7.45516e-05
0.000366044
0.00019372
0.000108117
0.000219567
0.000357576
0.00031109
0.000114708
0.000144235
0.000239613
0.000222584
0.000210568
5.46609e-05
0.000129228
0.000256616
0.000156688
-2.54815e-05
0.000205314
1.5982e-05
-0.000189039
0.000124866
0.000287882
0.000232537
8.56245e-05
0.000235813
0.000347931
0.000239076
0.000115889
0.000132554
0.000253606
0.000213167
0.000197648
0.000117288
8.27075e-05
0.000214547
-1.43849e-05
-0.000105026
0.000186303
0.000106977
-2.12233e-05
-3.78303e-05
0.000160865
0.000128364
6.21521e-05
0.000267107
0.000351685
0.000247529
0.000127699
0.000109551
0.000245057
0.000206259
0.000184199
0.000139379
0.000124927
0.000159081
9.67357e-05
-3.03645e-05
0.00019257
0.000127164
0.000138761
0.000130217
0.000156122
-6.14333e-05
4.56944e-05
0.000116828
0.000386232
0.000198493
0.000106682
0.000123987
0.000180594
9.90532e-05
0.000170825
0.000195437
0.000138285
0.000102272
4.21589e-05
9.3704e-06
0.00018165
0.000196465
0.000200726
0.000269503
0.000274436
2.09272e-05
6.31995e-05
0.000153644
0.000367713
0.000190338
0.000109037
0.000163095
0.000148878
0.000157089
0.000198203
0.000194802
0.000140896
7.21086e-05
5.15194e-05
7.71108e-05
0.000151965
0.000195852
0.000188669
0.000197677
0.000207881
0.000128774
0.000107039
0.000221407
0.000295489
0.000202627
0.000132497
0.000191651
0.00016721
0.000174321
0.000187036
0.000182911
0.000188417
0.00015381
8.68815e-05
8.91106e-05
0.000131944
0.000188043
0.000203657
0.000195201
0.000188414
0.000158729
0.000146199
0.000238627
0.000290066
0.000231142
0.000171342
0.000208875
0.000182363
0.000188143
0.000201761
0.000202332
0.000199318
0.000187355
0.00015913
0.000130599
0.0001435
0.000165684
0.000146292
0.000141164
0.000170125
0.000174997
0.000153778
0.000179498
0.000237783
0.000221493
0.000205653
0.000199645
0.000251818
0.000188792
0.000168207
0.000173954
0.000173485
0.00016768
8.58798e-05
2.61972e-05
0.000265925
0.000381867
0.000291048
0.000276713
0.000288868
0.000311665
0.000275753
0.000238908
0.000141761
0.000158188
0.000309236
0.000377165
0.000220054
0.000180348
0.000158921
0.000241841
0.000163444
0.000167179
1.16341e-05
0.00011475
0.000251804
0.000296406
0.000291313
0.000263362
0.000257512
0.000310772
0.000275613
0.000240196
0.000105962
0.000155365
0.000308108
0.000346355
0.000249384
0.000145286
0.000220275
0.000187783