/*--------------------------------*- C++ -*----------------------------------*\
| =========                 |                                                 |
| \\      /  F ield         | OpenFOAM: The Open Source CFD Toolbox           |
|  \\    /   O peration     | Version:  5.0                                   |
|   \\  /    A nd           | Web:      www.OpenFOAM.org                      |
|    \\/     M anipulation  |                                                 |
\*---------------------------------------------------------------------------*/
FoamFile
{
    version     2.0;
    format      ascii;
    class       volVectorField;
    location    "0";
    object      U;
}
// * * * * * * * * * * * * * * * * * * * * * * * * * * * * * * * * * * * * * //

dimensions      [0 1 -1 0 0 0 0];

internalField   nonuniform List<vector> 
7200
(
(0.0324088 0.000599057 0.00751951)
(0.0326716 0.000101927 0.00822616)
(0.0316079 -8.09934e-05 0.00684373)
(0.0288788 6.96849e-06 0.00478141)
(0.0238218 1.67091e-05 0.00330657)
(0.0193277 -0.000243528 0.00360715)
(0.0184656 -0.000442319 0.00378704)
(0.019476 -0.000304732 0.00259778)
(0.0204138 -3.30064e-05 0.000646976)
(0.0225346 0.000121947 -0.00109713)
(0.0254675 0.000157944 -0.00318742)
(0.02876 -2.76054e-05 -0.00578479)
(0.0301376 -7.53138e-05 -0.00746718)
(0.0266163 -3.03211e-05 -0.00716315)
(0.0213673 -8.6795e-05 -0.00653605)
(0.0184949 -0.000304603 -0.00629963)
(0.0192354 -0.000116874 -0.00550327)
(0.0221896 0.000324003 -0.00173704)
(0.0260671 0.000633778 0.00163639)
(0.0299954 0.000673156 0.0042823)
(0.056213 0.00100389 0.0106046)
(0.0577917 5.57693e-05 0.0112956)
(0.0556605 -0.000233127 0.00932511)
(0.0490528 8.02761e-05 0.00624044)
(0.0407706 -0.000129462 0.00483036)
(0.0359462 -0.000546098 0.00522133)
(0.0321948 -0.000953241 0.00557408)
(0.0321843 -0.000662788 0.00394214)
(0.0342009 1.59289e-06 0.000579989)
(0.0385188 0.000185885 -0.00162782)
(0.042118 0.000103918 -0.00342136)
(0.0516353 -0.000442401 -0.00866519)
(0.0536391 -0.000329875 -0.0103954)
(0.0493135 -0.00010831 -0.00995792)
(0.0403195 -0.000201062 -0.00851935)
(0.033363 -0.000651453 -0.00870033)
(0.0322461 -0.000101731 -0.00695398)
(0.0353438 0.000516434 -0.0032241)
(0.0421065 0.00122493 0.00194849)
(0.0521564 0.0013546 0.00758202)
(0.102677 0.000776287 0.012221)
(0.105776 -0.000185285 0.0149607)
(0.101829 -0.000742623 0.0118912)
(0.0972453 -0.000133483 0.010031)
(0.0896559 -2.5077e-05 0.00707646)
(0.0758469 -0.00119618 0.00675484)
(0.0612229 -0.00216034 0.00831731)
(0.0574978 -0.00180856 0.00694989)
(0.0558988 -0.000472772 0.00367075)
(0.0604946 -0.000195049 0.0026425)
(0.0680438 -0.00130514 0.00190525)
(0.0799877 -0.00305297 -0.00165313)
(0.0942112 -0.0021611 -0.0100154)
(0.0966773 -0.000391122 -0.0135998)
(0.0901824 -0.000295257 -0.0114295)
(0.0760876 -0.00100939 -0.00943583)
(0.0615111 -0.0011292 -0.0128326)
(0.0575757 0.00048568 -0.00786707)
(0.0693386 0.00124811 -0.00234598)
(0.0848382 0.00151567 0.00318494)
(0.112521 -0.00438655 -0.0103242)
(0.133546 -0.00292167 0.00491153)
(0.129603 -0.00105477 0.0119203)
(0.12857 -0.000711637 0.00837043)
(0.132386 -0.000427583 0.011082)
(0.131542 -0.000867163 0.00928896)
(0.129553 -0.000601807 0.00568762)
(0.0990265 -0.00224374 0.00989339)
(0.0841387 -0.00162918 0.00701081)
(0.0821821 -0.000756238 0.00669594)
(0.0831661 -0.00186477 0.00754417)
(0.0857325 -0.00985582 0.014134)
(0.0901378 -0.0112451 0.0148436)
(0.109352 -0.00822941 0.00411752)
(0.13206 -0.00357682 -0.0092391)
(0.124638 -0.00189147 -0.00860041)
(0.121315 -0.000809558 -0.00820452)
(0.109886 2.48697e-05 -0.0121951)
(0.0942839 -0.00152716 -0.0182227)
(0.093463 -0.00429587 -0.0205049)
(0.114487 -0.00805007 -0.0205521)
(0.122982 -0.00941396 -0.011643)
(0.140416 -0.00115113 0.00777498)
(0.133315 -0.000906208 0.00784187)
(0.137766 -0.000469697 0.00575612)
(0.138813 -0.000312154 0.00780738)
(0.134732 -0.00324854 0.00420015)
(0.141646 -0.00148516 0.00841245)
(0.111349 -0.000709243 0.00935979)
(0.102355 -0.000955741 0.00932578)
(0.103508 -0.00208587 0.00806606)
(0.109892 -0.0104266 0.0112445)
(0.106363 -0.0132612 0.0166758)
(0.110045 -0.012447 0.0150347)
(0.130354 -0.00700459 -0.00166459)
(0.125367 -0.00139473 -0.00765039)
(0.108804 -0.00193668 -0.00128498)
(0.120422 -6.25729e-05 0.000474193)
(0.124514 -0.00206698 -0.0147268)
(0.115831 -0.00617735 -0.0234399)
(0.124944 -0.00733528 -0.0244302)
(0.131178 -0.0118962 -0.01268)
(0.139502 -0.00913345 -0.00410722)
(0.144447 -0.00130719 0.00400635)
(0.133024 -0.00217175 0.000782932)
(0.138804 -0.00106697 0.00320038)
(0.13878 -0.00672247 0.00339758)
(0.146099 -0.00510052 0.00707737)
(0.141512 0.00170466 0.00860499)
(0.128516 0.00197588 0.0101033)
(0.119379 -0.00304889 0.00854984)
(0.135183 -0.00942624 0.00116102)
(0.133162 -0.0103776 0.00748205)
(0.121023 -0.0114422 0.0162746)
(0.126005 -0.00819441 0.00431844)
(0.126044 0.000741985 -0.00657982)
(0.11243 -0.00116495 0.00122024)
(0.114083 -0.00158989 0.0060745)
(0.130993 0.00113248 0.00460913)
(0.13534 -0.00391708 -0.0175251)
(0.140515 -0.00384241 -0.0213684)
(0.140316 -0.0107323 -0.01761)
(0.144177 -0.0101097 -0.00718712)
(0.142592 -0.00216617 0.00122594)
(0.139061 -4.76208e-05 0.00146538)
(0.137377 -0.00284137 0.00161686)
(0.144934 -0.00447516 0.0050956)
(0.140313 -0.00868969 0.00155213)
(0.137407 -0.00385664 0.00581317)
(0.13053 0.00414248 0.00690646)
(0.12992 0.000304663 0.000282249)
(0.140103 -0.0120679 -0.00639856)
(0.148352 -0.0096012 0.000103626)
(0.134895 -0.00674443 0.0123549)
(0.126159 -0.00429449 0.00900962)
(0.129843 0.00205368 -0.00387063)
(0.129281 0.000559848 -0.00766595)
(0.129379 0.000103901 -0.00414383)
(0.137113 -0.0021255 0.00237191)
(0.147952 -0.00122247 -0.00294423)
(0.153194 -6.69422e-05 -0.0148683)
(0.152478 -0.00583914 -0.0173095)
(0.154529 -0.00862895 -0.0151617)
(0.14534 -0.00371963 -0.00322374)
(0.140668 0.00212942 0.002337)
(0.141145 -0.000554889 0.00313374)
(0.145361 -0.00406575 0.00584057)
(0.141697 -0.00487863 0.00260922)
(0.127779 -0.000443188 -0.000196015)
(0.132839 0.00153167 -0.000920387)
(0.138724 0.0012697 -0.00512305)
(0.14386 -0.0113951 -0.00523319)
(0.151459 -0.00932191 0.00521282)
(0.143581 -0.00383136 0.0100418)
(0.129007 0.00230986 0.00737974)
(0.128265 0.00386702 -0.00032936)
(0.129359 -0.000511938 -0.00367692)
(0.136001 -0.000376301 -0.00308017)
(0.138429 -0.00207692 0.00269205)
(0.141545 -0.0019508 -0.000546224)
(0.151732 0.00155547 -0.006904)
(0.162754 -0.000574215 -0.0117612)
(0.166309 -0.00265466 -0.0129262)
(0.157513 -0.00414065 -0.0115434)
(0.145905 0.00221856 -0.00275291)
(0.144216 0.00184991 0.00323186)
(0.141413 -0.00183004 0.00570523)
(0.137151 -0.00131979 0.00145142)
(0.139553 -0.00018367 -0.00219485)
(0.14145 -0.00183048 -0.00023032)
(0.140309 -0.000243972 0.000950387)
(0.143019 -0.00548759 0.000547532)
(0.148976 -0.00908891 0.00565613)
(0.146342 -0.00189416 0.00784587)
(0.130305 0.00616167 0.00772001)
(0.12438 0.00440534 0.00575424)
(0.127558 0.000160877 0.0041756)
(0.132048 -0.00188516 0.00234744)
(0.137205 0.00125121 0.00429048)
(0.140701 0.00320219 0.00200486)
(0.145411 0.00114268 0.00385499)
(0.154237 -0.0037492 -0.00497566)
(0.163366 5.35424e-05 -0.00927)
(0.160459 0.00206343 -0.00978712)
(0.152671 0.00437973 -0.00735784)
(0.149725 0.00304962 -0.00251565)
(0.145609 -0.000852419 0.00112385)
(0.142563 -0.00383478 0.0045212)
(0.152018 -0.00511362 0.00380774)
(0.151979 -0.00268659 0.00496641)
(0.14358 0.00285917 0.00564383)
(0.141461 0.00198731 -0.00241932)
(0.143139 -0.00331726 -0.00249444)
(0.144482 -0.00149854 0.00452415)
(0.140525 0.00883708 0.00627827)
(0.139124 0.00940422 0.00159104)
(0.137107 0.00411886 -0.000628042)
(0.137271 0.00268394 0.00142174)
(0.139081 0.00405999 0.00489251)
(0.139877 0.00447061 0.0079285)
(0.154143 -0.00333552 0.00989648)
(0.15745 -0.00313716 0.00608727)
(0.161005 0.00478391 -0.00429896)
(0.15521 0.00817516 -0.00848155)
(0.151174 0.00616199 -0.0093326)
(0.14944 0.000794148 -0.00815867)
(0.153008 -0.0023245 -0.00503249)
(0.157948 -0.00458692 -0.0019639)
(0.156468 -0.00713147 0.00379407)
(0.15413 -0.00679576 0.00754378)
(0.150813 -0.00249466 0.00816789)
(0.150042 -0.000973249 0.00299413)
(0.149344 -0.00334977 -0.00108599)
(0.149881 -0.000194382 0.00731616)
(0.151751 0.00474799 0.00753983)
(0.154999 0.00785904 0.000192981)
(0.154345 0.00275695 -0.00911274)
(0.152015 0.00226433 -0.00788562)
(0.148504 0.0043165 0.000854867)
(0.150145 0.000155095 0.00753798)
(0.155868 -0.00709617 0.00705036)
(0.159937 -0.00331429 0.00447066)
(0.162705 0.00305125 7.68606e-05)
(0.161189 0.00769634 -0.00461087)
(0.160287 0.00847079 -0.00695222)
(0.159775 0.0059542 -0.00698656)
(0.159184 0.000977384 -0.00179449)
(0.159551 -0.00304157 0.000176741)
(0.158029 -0.00263054 -0.00209406)
(0.156815 -0.0028161 0.00183249)
(0.156861 -0.00557253 0.00557385)
(0.157894 -0.00912997 0.00621211)
(0.157466 -0.00777908 0.00217614)
(0.156603 -0.00225543 0.00287618)
(0.155904 0.00416643 0.00612203)
(0.155414 0.00187807 0.00491126)
(0.156487 -0.00181227 -0.00198313)
(0.15822 0.00125659 -0.00865639)
(0.158773 0.00260003 -0.00902081)
(0.15625 -0.00389342 0.000951474)
(0.0189357 0.000693209 -0.00256048)
(0.0207135 0.000838394 0.00223753)
(0.0209818 0.000596485 0.00567407)
(0.0203355 0.000254985 0.00541655)
(0.0193172 0.000183106 0.00477805)
(0.0186432 0.000193387 0.00559139)
(0.0199874 5.37025e-05 0.00573348)
(0.0227086 -1.67491e-05 0.00400367)
(0.0256538 -0.000136661 0.00107201)
(0.0282499 -0.000143371 -0.00185421)
(0.0287748 -8.75054e-05 -0.00335158)
(0.0289243 -0.000225675 -0.00197608)
(0.0294902 -0.000420064 0.00052973)
(0.0273796 -0.000421141 0.000631289)
(0.0227907 -0.000434772 -0.000760882)
(0.0184842 -0.000659992 -0.000642073)
(0.0161077 -0.000846863 0.000376168)
(0.0151615 -0.000601863 -0.000163819)
(0.0151852 -0.000199722 -0.00186988)
(0.0166042 0.000209527 -0.00337825)
(0.0234303 0.00109172 -0.00500453)
(0.0252598 0.00168622 0.00158279)
(0.0385198 0.00126115 0.00924049)
(0.026429 0.000901651 0.00541631)
(0.026928 0.000830163 0.00520923)
(0.0329539 0.000460056 0.0089415)
(0.0340243 0.000159715 0.00909166)
(0.0391055 -0.000198906 0.00528848)
(0.0420104 -0.00040242 0.00274694)
(0.0533025 -0.000719895 0.000146357)
(0.0492912 -0.000333257 -0.00396868)
(0.0512711 -0.000749227 -0.0018441)
(0.052364 -0.000941527 8.02125e-05)
(0.0482017 -0.00089223 0.000743481)
(0.0382587 -0.000993387 0.0043782)
(0.0357809 -0.00137748 -0.00103602)
(0.0234419 -0.000753845 0.00457842)
(0.0215364 -3.08902e-05 0.00090311)
(0.0206005 0.000234319 -0.00351349)
(0.0265824 0.000554337 -0.00454965)
(0.0568949 0.00288814 -0.00258167)
(0.0700333 0.00257986 0.0067139)
(0.0520679 0.00388358 0.0102605)
(0.0523931 0.00300539 0.0106501)
(0.0516728 0.00264583 0.0097639)
(0.053083 0.00263062 0.0115669)
(0.0574074 0.00209452 0.0119066)
(0.067662 -0.000370011 0.0127567)
(0.0747253 -0.00103144 0.00684334)
(0.0860772 -0.00208824 0.00355469)
(0.0913212 -0.00186644 0.00220563)
(0.0924591 -0.000996125 0.00219816)
(0.093781 -0.0011638 0.00172913)
(0.0976508 -0.00209342 0.000800574)
(0.0857928 -0.00154928 0.00459564)
(0.0852139 -0.00220338 -0.000916557)
(0.0474962 -0.00131392 0.00626848)
(0.0396371 0.000378808 -0.00115967)
(0.0387343 0.000703275 -0.00464528)
(0.0373821 0.00128673 -0.00924709)
(0.0610411 0.00253818 -0.014185)
(0.0695843 0.00387711 -0.00331704)
(0.0807057 0.00491687 0.00801142)
(0.0889557 0.00550688 0.0134746)
(0.0909609 0.00559878 0.0138222)
(0.0943772 0.00492729 0.0150415)
(0.0980246 0.00529193 0.0176595)
(0.104617 0.0041428 0.0220937)
(0.10359 0.000156882 0.0188732)
(0.101838 -0.00175953 0.0103572)
(0.0970929 -0.00115409 0.00865314)
(0.103688 -0.00235625 0.0146687)
(0.105264 -0.00526246 0.017143)
(0.12727 -0.00681384 0.00390109)
(0.131525 -0.00487644 0.00623302)
(0.134971 -0.00191126 0.00530637)
(0.0948946 0.000439481 0.00947162)
(0.0837235 -0.00212444 0.000147984)
(0.0673644 0.000987629 -0.00392016)
(0.0668642 0.0023588 -0.00999084)
(0.0776083 0.00300977 -0.020355)
(0.0882419 0.0027674 -0.0145097)
(0.0880432 0.00321339 6.56894e-05)
(0.116412 -0.00228679 0.00615173)
(0.119716 -0.00189317 0.00658215)
(0.125074 -0.00141386 0.00805665)
(0.126378 -0.00487972 0.00884494)
(0.144016 -0.00185839 0.0151429)
(0.138391 -0.000268249 0.0175209)
(0.126352 -0.000443343 0.0147801)
(0.115164 -0.000221487 0.00886771)
(0.116696 -0.00458153 0.0117305)
(0.118083 -0.00353136 0.0177395)
(0.129033 -0.010644 0.0152179)
(0.137596 -0.00971622 0.00102885)
(0.134253 -0.00612185 0.00110957)
(0.13218 0.00150106 0.00949804)
(0.117899 0.000928101 0.0110957)
(0.0916738 -0.00320988 0.0065534)
(0.0793576 0.00061811 -0.0109475)
(0.0948118 0.00255084 -0.019096)
(0.0959404 0.00349363 -0.0193795)
(0.087826 0.00294288 -0.0133102)
(0.0964647 0.00146528 -0.00235981)
(0.105095 0.000763768 0.00252607)
(0.109628 0.00118177 0.00376088)
(0.118844 -0.00180472 0.00510977)
(0.132174 -0.00744555 0.00773445)
(0.141386 -0.000315666 0.0134671)
(0.132983 -0.00311471 0.0137215)
(0.13197 -0.00395198 0.0113829)
(0.135143 -0.0052164 0.00138273)
(0.135166 -0.00535474 0.0109756)
(0.141713 -0.0116301 0.0105259)
(0.136264 -0.0107472 -0.00140687)
(0.137572 -0.0063635 -0.00174455)
(0.131094 -0.00615493 -0.00187367)
(0.142841 -0.00130579 0.00644132)
(0.141457 -0.00168499 0.0114043)
(0.112757 -0.0054027 0.00572013)
(0.118385 -0.00242907 -0.00550739)
(0.101485 0.00512065 -0.0189948)
(0.0995411 0.00405964 -0.0118592)
(0.102023 0.0037889 -0.00559337)
(0.117857 -0.00119502 -0.000373711)
(0.106053 -9.45576e-05 -0.00612367)
(0.120509 -0.00556748 -0.00163077)
(0.126853 -0.00948853 -0.00162882)
(0.12632 -0.00393263 0.00398496)
(0.130541 0.000889596 0.00674808)
(0.138521 -0.004258 0.00170395)
(0.139324 -0.00964616 -0.00559804)
(0.141783 -0.0138734 0.00830948)
(0.141149 -0.00672205 0.0141379)
(0.138083 -0.00850603 0.00143028)
(0.133161 -0.00560299 -0.00775741)
(0.132671 -0.00470868 -0.00996615)
(0.126765 -0.00630839 -0.00651263)
(0.147512 -0.00262812 0.00138953)
(0.143694 0.000551211 1.73853e-05)
(0.122899 0.00139004 -0.0121527)
(0.107779 0.00222761 -0.0171795)
(0.109707 0.00276775 -0.0169255)
(0.121817 0.00485943 -0.00359562)
(0.123272 0.00517329 -0.00159399)
(0.120558 0.00277781 -0.00245258)
(0.125255 -0.00152258 -0.000875092)
(0.129367 -0.00530024 -0.00728925)
(0.129401 -0.00126902 -0.00369216)
(0.134779 -0.00538707 -0.00342737)
(0.138343 -0.0102623 -0.00518174)
(0.145457 -0.0115699 -0.0088339)
(0.141284 -0.0147478 -0.00256671)
(0.139014 -0.0110437 0.00960001)
(0.133858 0.00197872 -0.00103798)
(0.133848 0.000219465 -0.00547359)
(0.140943 0.000408371 -0.00702592)
(0.137301 -0.00360581 -0.0100559)
(0.138278 -0.00629202 -0.00957189)
(0.153119 -0.00167202 -0.00228937)
(0.153861 0.00467355 -0.00859164)
(0.14439 0.00289619 -0.0123002)
(0.135068 -0.000805045 -0.0139103)
(0.113771 0.00730069 -0.00794885)
(0.117927 0.0127919 -0.00229064)
(0.133472 0.00790914 0.00475667)
(0.130067 0.00407639 0.00667088)
(0.127895 0.0015599 -0.00296164)
(0.130766 -0.00199177 -0.0103089)
(0.139066 -0.00915254 -0.00726558)
(0.145082 -0.00903248 -0.00524618)
(0.143034 -0.0098711 -0.00698093)
(0.1428 -0.0110558 -0.00672402)
(0.141829 -0.00837977 0.00338803)
(0.142783 0.00697783 0.0101627)
(0.134701 0.00530524 0.00668415)
(0.133939 0.00100433 -4.85565e-05)
(0.141774 0.000169881 -0.0069342)
(0.14472 3.60056e-05 -0.00831269)
(0.155002 -0.00448351 -0.00174741)
(0.160454 -0.00554235 0.00565103)
(0.158939 -0.00268914 -0.00221059)
(0.156518 0.00551709 -0.00467307)
(0.138994 0.00850488 -0.00469185)
(0.142396 0.00302724 -0.00648895)
(0.133061 0.00555525 0.000124357)
(0.133456 0.00649781 0.0101381)
(0.134185 0.00623252 0.00664502)
(0.138827 0.00130614 -0.0028336)
(0.143757 -0.00464317 -0.00166304)
(0.151976 -0.0063681 0.00338747)
(0.155239 -0.00753912 6.47925e-05)
(0.149969 -0.00664246 -0.00430041)
(0.150724 -0.00424952 0.00167505)
(0.147047 0.00376727 0.0070908)
(0.148591 0.00301687 0.00481756)
(0.140535 0.00100954 0.00181005)
(0.143164 -0.000762334 -0.00332212)
(0.143389 0.0049979 -0.000334089)
(0.155613 -0.0035711 0.00627903)
(0.165263 -0.0101035 0.00388597)
(0.166337 -0.00866692 0.00360259)
(0.160555 0.00122285 -0.00149312)
(0.153214 0.0109016 -0.00643055)
(0.151873 0.0086992 -0.00685699)
(0.147885 0.00170586 -0.00876508)
(0.143582 0.000126414 -0.00629429)
(0.143693 0.00171691 0.00112948)
(0.14843 -0.00143882 0.0056463)
(0.149717 -0.00247178 0.00941583)
(0.15056 -0.00127276 0.00957372)
(0.155197 -0.00657774 0.00719049)
(0.157403 -0.00402911 0.00375965)
(0.154726 -0.0022629 0.00122417)
(0.154831 -0.00124226 0.00366047)
(0.156713 -0.000884905 0.00215562)
(0.157491 -0.00250022 -0.00205532)
(0.156679 -0.00280734 -0.00051981)
(0.149072 0.00174463 0.00446463)
(0.150908 -0.000601595 0.00331558)
(0.161487 -0.0042649 0.0018471)
(0.162797 -0.00475336 0.00252875)
(0.166761 -0.000147596 -0.000270027)
(0.168688 0.00544167 -0.00194203)
(0.169352 0.00502139 -0.0046884)
(0.16449 0.00597854 -0.00625851)
(0.156706 0.0045336 -0.00151601)
(0.154786 0.00230976 -0.00131371)
(0.152553 -0.00158819 -0.0022698)
(0.155085 -0.00259224 0.000420452)
(0.156946 0.00127683 0.00054594)
(0.156626 0.00124132 -0.0004108)
(0.155812 0.000491174 -0.000452857)
(0.156531 0.00158189 0.000752332)
(0.157817 0.00418581 0.00126432)
(0.159546 0.00412049 7.77601e-05)
(0.161584 -0.00150184 -0.000130903)
(0.159772 -0.00231529 -0.00562553)
(0.157716 0.000394262 -0.00554312)
(0.155179 0.00203443 -0.000954132)
(0.0183361 -0.0010177 -0.00244728)
(0.0186023 -0.000852858 -0.00196246)
(0.0174435 -0.000308274 -0.00190364)
(0.0170302 -1.81812e-05 -0.00198213)
(0.0179174 5.68827e-05 -0.00197047)
(0.0187581 7.11756e-05 -0.00155459)
(0.0195817 3.05759e-05 -0.00126234)
(0.0208443 -3.43166e-05 -0.00122209)
(0.0228782 -0.00012783 -0.00024825)
(0.0251486 -0.000105254 0.00205259)
(0.0246351 2.74884e-05 0.00434384)
(0.0203441 3.21567e-05 0.00551279)
(0.0162589 4.71457e-05 0.00602864)
(0.0146399 0.000194743 0.00660859)
(0.0149348 0.000416047 0.00644903)
(0.016323 0.000576966 0.00439141)
(0.0172185 0.000640751 0.00047941)
(0.0172648 0.00038414 -0.00288011)
(0.0172768 8.71479e-06 -0.00429688)
(0.0175207 -0.000429497 -0.00389854)
(0.0317834 -0.00204391 -0.00289529)
(0.0295271 -0.00114645 -0.00216046)
(0.0284005 -0.000523674 -0.00235434)
(0.0287449 8.53897e-05 -0.00273143)
(0.0297543 0.000146497 -0.0027025)
(0.0313546 0.000144495 -0.00225487)
(0.0340189 -3.93446e-05 -0.00195538)
(0.035482 -0.000167805 -0.00183944)
(0.0407814 -0.000507139 0.000455472)
(0.0434162 -0.000442787 0.00255255)
(0.0448906 -8.75287e-05 0.00607706)
(0.035698 0.000161473 0.00840428)
(0.0280999 0.000330308 0.00921107)
(0.0249496 0.000752508 0.00989878)
(0.0252884 0.00109514 0.00841717)
(0.0270378 0.00120572 0.00602862)
(0.0309253 0.0010159 -0.00154212)
(0.0319644 0.000588304 -0.00413109)
(0.0327512 -0.000188758 -0.00607714)
(0.0327468 -0.00107917 -0.00520359)
(0.0572703 -0.00408455 -0.00285667)
(0.0519584 -0.00314775 -0.00179699)
(0.0476454 -0.000785718 -0.00171836)
(0.0490432 0.000463882 -0.00263804)
(0.0510877 0.000544949 -0.00281598)
(0.0543282 0.000464497 -0.00257078)
(0.0579256 8.05682e-05 -0.00259485)
(0.0626255 -0.000475757 -0.00278968)
(0.0701543 -0.0017007 -0.0014746)
(0.0743024 -0.0019463 0.000337994)
(0.0816431 -0.00136059 0.0047767)
(0.082863 -0.000106712 0.00921685)
(0.0713411 0.000817996 0.0109336)
(0.0576412 0.00160386 0.012729)
(0.049713 0.00278785 0.0145872)
(0.0477773 0.0027539 0.0118562)
(0.0592888 0.00144415 0.00263582)
(0.0650779 0.000482638 -0.00124928)
(0.0717668 -0.00135797 -0.00826671)
(0.0704172 -0.00236339 -0.00840528)
(0.11823 -0.00474135 -0.00587092)
(0.0856113 -0.00369183 -0.00263746)
(0.0679656 -0.000206137 -0.000137087)
(0.0685161 0.00263506 0.00105232)
(0.073861 0.00253118 0.00136653)
(0.0781683 0.00215048 0.00201547)
(0.0821234 0.00169887 0.00186205)
(0.0851703 0.00127493 0.00240055)
(0.0961081 -0.0005872 0.00398406)
(0.10181 -0.00230257 0.00248987)
(0.104219 -0.00239433 0.00294783)
(0.109923 -0.00088853 0.0069861)
(0.11516 0.000101664 0.00964431)
(0.112991 0.00120237 0.0115355)
(0.106332 0.0040303 0.0149436)
(0.100808 0.00559605 0.0207843)
(0.0939505 0.00149941 0.0212443)
(0.100452 -0.00360782 0.016421)
(0.109588 -0.00587425 0.0136718)
(0.124952 -0.0056603 0.00267854)
(0.146095 -0.00698228 0.000405316)
(0.0994554 -0.000363624 -0.00249737)
(0.081615 0.00142162 -0.00166896)
(0.0757906 0.00499204 0.00137584)
(0.0833085 0.0054633 0.00465227)
(0.0881822 0.00467045 0.00616486)
(0.0904181 0.00473796 0.00680536)
(0.0985518 0.0049404 0.0111551)
(0.103762 0.00440177 0.0135871)
(0.11112 0.00251228 0.0124273)
(0.113158 0.000311754 0.00568965)
(0.115288 0.00162153 0.00634445)
(0.117799 5.8825e-05 0.00666077)
(0.128462 0.000594492 0.0108169)
(0.12707 0.00223715 0.0115518)
(0.128012 0.0034168 0.0138127)
(0.12815 0.00127364 0.019258)
(0.131045 -0.00518163 0.0167958)
(0.133803 -0.00866538 0.0183455)
(0.134403 -0.0115008 0.0169743)
(0.152213 -0.0119235 0.00629295)
(0.123338 0.00147775 -0.00231243)
(0.100168 0.00355362 -0.00289211)
(0.0839836 0.00751741 -0.00252883)
(0.0891992 0.00852317 0.00142566)
(0.0965406 0.00693339 0.00463666)
(0.0998928 0.00710141 0.0058439)
(0.105657 0.00837634 0.00839125)
(0.118469 0.00813269 0.0148681)
(0.122788 0.00799729 0.0173357)
(0.122938 0.00495099 0.0122804)
(0.120817 0.00338784 0.00633885)
(0.126772 0.00346544 0.00826267)
(0.128736 0.000637782 0.00844517)
(0.128289 0.00190006 0.00470805)
(0.127033 -6.04221e-05 0.00148909)
(0.128077 -0.00203799 0.00930323)
(0.130855 -0.00586874 0.00548569)
(0.143166 -0.00779585 0.00720484)
(0.143639 -0.0126272 0.0141345)
(0.155836 -0.0103078 0.00331478)
(0.152307 -0.00202428 0.000155134)
(0.121491 0.00349388 -0.00315408)
(0.0991092 0.00910743 -0.00440393)
(0.0956587 0.00998065 -0.00612678)
(0.0966086 0.00712419 -0.00566351)
(0.101171 0.00542608 -0.00364391)
(0.108503 0.00844043 0.00066704)
(0.119203 0.0102349 0.00646403)
(0.12372 0.00984972 0.011425)
(0.125606 0.00550679 0.00509947)
(0.12604 0.00228788 0.00163519)
(0.131779 0.00210057 0.00712671)
(0.132418 0.00526335 0.0116899)
(0.125143 0.00134797 -0.0106052)
(0.126332 -0.00298889 -0.0127785)
(0.131448 -0.00314412 -0.00432991)
(0.137681 -0.00665392 -0.00421722)
(0.140672 -0.00890508 -0.00452448)
(0.14159 -0.00877208 0.00411957)
(0.157258 -0.0123289 0.00166585)
(0.156007 -0.00167429 -3.08693e-05)
(0.132337 0.00460458 -0.00146412)
(0.106865 0.0105082 -0.00603265)
(0.1053 0.00978597 -0.0103455)
(0.116862 0.00368669 -0.0118618)
(0.115678 0.000610151 -0.0101833)
(0.108269 0.00809428 -0.00610404)
(0.11302 0.00972247 -0.00447741)
(0.119566 0.00913488 -0.00254804)
(0.121031 0.00596831 -0.00339915)
(0.120457 -0.00138072 -0.00160764)
(0.119497 0.00537784 0.00210058)
(0.11901 0.0118057 -0.00501898)
(0.124101 0.0026584 -0.0150262)
(0.128352 -0.00375954 -0.0178035)
(0.131259 -0.0057341 -0.0170535)
(0.140024 -0.00913287 -0.0146132)
(0.141751 -0.00845337 -0.0130754)
(0.148608 -0.0116302 -0.00411307)
(0.159701 -0.0114191 0.00310008)
(0.155087 -0.00494929 0.00477842)
(0.150243 0.00222746 0.00110088)
(0.133538 0.00448455 0.000806861)
(0.124239 -0.000320602 -0.000460045)
(0.127501 -0.00209364 -0.000655546)
(0.127794 0.00283102 -0.00352157)
(0.11835 0.00491261 -0.00808739)
(0.119534 0.00386225 -0.0104172)
(0.122209 0.00368628 -0.00931157)
(0.124498 0.001663 -0.00168049)
(0.120331 -0.000184804 -0.000486895)
(0.115811 0.006601 -0.00358454)
(0.12618 0.0112403 0.00101523)
(0.132333 0.00890198 0.00612947)
(0.134322 0.000747806 0.00278557)
(0.1352 -0.00309123 -0.0115939)
(0.141393 -0.00586238 -0.0172555)
(0.149224 -0.00952684 -0.0168674)
(0.155953 -0.0133694 -0.0080829)
(0.162451 -0.00875465 0.00745513)
(0.161367 -0.00486541 0.00588438)
(0.163547 -0.00279713 0.00325268)
(0.159282 0.00489291 0.00268652)
(0.146069 0.0059572 0.00141606)
(0.131368 0.00345545 0.00065439)
(0.129757 0.00234803 0.00661498)
(0.137215 0.00153485 0.0050821)
(0.141185 -0.0012721 -0.00526811)
(0.133458 -0.00247499 -0.00690781)
(0.132456 -0.00177617 -0.00332038)
(0.135416 -0.00175763 0.00052839)
(0.136852 0.00146028 0.00051168)
(0.139211 0.004474 0.00295606)
(0.142052 0.00569327 0.0122722)
(0.14298 0.00306508 0.0102563)
(0.14638 -0.00087664 0.00234893)
(0.150883 -0.00536314 -0.00383861)
(0.152944 -0.00796283 -0.00718197)
(0.156841 -0.0111882 -0.00550495)
(0.161958 -0.01127 -0.000263554)
(0.164078 -0.00394477 0.00266008)
(0.165066 -0.001274 -0.000577364)
(0.156315 0.00618434 -0.000713588)
(0.145258 0.00929913 -0.00191222)
(0.14489 0.00501902 -0.00481939)
(0.14451 0.00169254 -0.0016297)
(0.140921 0.00282583 0.00272472)
(0.143522 0.00404448 0.00329266)
(0.14531 0.00233594 0.00224436)
(0.143838 0.00119111 0.000884004)
(0.143322 0.00274778 -0.000833775)
(0.145664 0.00197647 -0.00145393)
(0.144602 0.001984 0.00115382)
(0.143879 0.0045194 0.00236679)
(0.152576 0.000908612 -0.00315197)
(0.155554 -0.00120494 -0.00530702)
(0.154325 -0.00212671 0.00280244)
(0.15456 -0.00329777 0.00454194)
(0.160688 -0.0107802 -0.00332482)
(0.156634 -0.0083349 -0.00330384)
(0.158399 -0.00227689 -0.000194111)
(0.160497 0.000910577 0.00113549)
(0.166269 0.00379039 0.000582348)
(0.168514 0.00405639 -0.00385838)
(0.166179 0.00501887 -0.00572252)
(0.163838 0.00538742 -0.00210346)
(0.157844 0.00275675 -0.000433721)
(0.151116 0.00170636 -0.000250579)
(0.150908 0.00388193 0.000611041)
(0.154478 0.0065729 0.000113252)
(0.154061 0.00473416 -0.00167202)
(0.152395 0.00310353 -0.00131943)
(0.151891 0.00368411 -0.000133518)
(0.153637 0.00524268 0.000157401)
(0.157172 0.00407387 -0.00175563)
(0.157413 -0.000570609 -0.00363728)
(0.15562 -0.00236755 -0.00411055)
(0.155282 -0.00302195 -0.00401728)
(0.155704 -0.00567303 -0.00376976)
(0.0159184 -0.000736564 0.00361446)
(0.0156995 -0.000370572 0.00281151)
(0.014748 -0.000116071 0.000385785)
(0.0147365 -3.88114e-05 -0.00151279)
(0.0160497 -3.75985e-05 -0.00190903)
(0.0167439 -3.08186e-05 -0.000951516)
(0.0164363 -5.04901e-05 -0.00028665)
(0.015989 -3.84037e-05 -0.000270723)
(0.0158811 9.54503e-07 0.000353063)
(0.0158088 0.000170878 0.00195557)
(0.0148189 0.000317906 0.0035086)
(0.0136526 0.000305231 0.00418032)
(0.0135914 0.000249722 0.00377596)
(0.0144907 0.000357872 0.00258217)
(0.0155368 0.000587205 0.00076841)
(0.016513 0.000575782 -0.00112668)
(0.0170521 0.000233431 -0.00254069)
(0.0166671 -0.000237834 -0.00248125)
(0.0162389 -0.000598957 -0.000954255)
(0.0158439 -0.000802848 0.00153744)
(0.0264858 -0.00120924 0.00442864)
(0.0256617 -0.000718664 0.00329575)
(0.0243711 -0.000223145 0.000121525)
(0.0247208 -9.94524e-05 -0.00224486)
(0.0267704 -0.000120997 -0.00260297)
(0.0281235 -0.00011477 -0.00137253)
(0.0282652 -0.000145934 -0.000495177)
(0.0281258 -0.000115749 -0.000284551)
(0.0282123 8.2306e-05 0.00160505)
(0.0280993 0.000342878 0.00327781)
(0.0259615 0.000801929 0.00653512)
(0.0243716 0.000791391 0.00684895)
(0.0230083 0.000745137 0.0052465)
(0.0237485 0.000933457 0.00395644)
(0.0258457 0.00128944 0.00130618)
(0.0300436 0.000776596 -0.00202487)
(0.0317502 0.000217812 -0.00294905)
(0.0318697 -0.00106869 -0.00252247)
(0.0307803 -0.00140886 -0.00114875)
(0.0285454 -0.00169491 0.00204694)
(0.0494274 -0.00318887 0.00547686)
(0.0450388 -0.00148908 0.00438183)
(0.0427451 -0.000436207 0.000319409)
(0.0443338 -0.00026174 -0.00367629)
(0.0479223 -0.000372133 -0.00322264)
(0.0495782 -0.000483263 -0.00226644)
(0.0520731 -0.000678612 -0.00124455)
(0.0532216 -0.000640828 -0.00111331)
(0.054921 -0.000333263 0.000783283)
(0.055219 0.00054205 0.00461627)
(0.0543276 0.00172585 0.00932774)
(0.0490201 0.00232384 0.0114904)
(0.0428233 0.00227196 0.0100323)
(0.0428142 0.00288818 0.00728432)
(0.0480731 0.00307261 0.00383749)
(0.0536076 0.00228231 0.00181976)
(0.0678247 -0.00101653 -0.000111899)
(0.0719061 -0.00218419 -0.000851096)
(0.0693514 -0.00335124 -0.00157267)
(0.0586481 -0.00390916 0.00153731)
(0.0834157 -0.0040051 0.00676406)
(0.0702844 -0.00107344 0.00439917)
(0.0671492 -2.21325e-05 0.00123391)
(0.065989 0.000398565 -0.00442565)
(0.068581 0.00024276 -0.00452975)
(0.0732732 -0.000507425 -0.00106312)
(0.0742554 -0.00115398 -0.000955906)
(0.0794483 -0.00198901 -0.00204499)
(0.0835105 -0.00199525 -0.00199612)
(0.0905053 -0.00132757 -0.00128847)
(0.093208 4.05188e-05 0.00121398)
(0.0912021 0.00263134 0.00919623)
(0.0872628 0.00450588 0.0148518)
(0.0786611 0.00553609 0.0154874)
(0.0768433 0.00622634 0.0157893)
(0.0856853 0.00348604 0.017935)
(0.101383 -0.00145381 0.0183186)
(0.109423 -0.00393506 0.0192575)
(0.121475 -0.00450359 0.0144791)
(0.113412 -0.00463681 0.00424969)
(0.111582 -0.00132408 0.0075614)
(0.0884581 0.00110125 0.00428437)
(0.0830683 0.00242002 0.00040704)
(0.077514 0.00287146 -0.00554668)
(0.0796696 0.00228802 -0.00372227)
(0.0819804 0.00183109 -0.000720797)
(0.0834605 0.00102833 0.00156574)
(0.0870369 0.000354916 4.94055e-05)
(0.0944029 0.00016164 0.00045598)
(0.0992581 -0.000343411 -8.36668e-05)
(0.111462 0.00061087 0.000441648)
(0.111639 0.00165112 0.00214669)
(0.109439 0.00244114 0.00853474)
(0.109087 0.00551736 0.0142586)
(0.107053 0.00657889 0.0147945)
(0.112757 0.00408023 0.0181555)
(0.125293 -0.00102905 0.0171967)
(0.131157 -0.00388432 0.0154676)
(0.134281 -0.00558617 0.0182216)
(0.144577 -0.0031513 0.0124909)
(0.133432 0.00206761 0.00717691)
(0.104858 0.00386345 0.00702038)
(0.0977854 0.00519258 0.00326746)
(0.0888058 0.00717972 -0.00747127)
(0.0869055 0.00568412 -0.00587455)
(0.0883089 0.00453019 -0.00153739)
(0.0902174 0.00405722 0.00293541)
(0.0928543 0.0056428 -0.000889337)
(0.100794 0.0063944 0.000794245)
(0.109959 0.00511625 0.00346111)
(0.117414 0.00240483 0.00263504)
(0.125326 0.00269848 0.00387453)
(0.125465 0.00195613 0.00458997)
(0.119832 0.00430849 0.0068778)
(0.120155 0.00638239 0.00354262)
(0.121788 0.00518701 0.00447418)
(0.127485 -8.22401e-05 0.00663221)
(0.133229 -0.00341023 0.00280714)
(0.129806 -0.0054592 0.0068787)
(0.146111 -0.00368987 0.00722402)
(0.147044 0.00125962 0.00331549)
(0.124964 0.00383098 0.00699359)
(0.104675 0.00543176 0.00504289)
(0.0993179 0.00974083 -0.00723858)
(0.0968007 0.00805944 -0.00986482)
(0.0954742 0.00386636 -0.00209139)
(0.0944301 0.00558056 0.00124291)
(0.0971732 0.0104656 -0.00237617)
(0.104332 0.0124734 -0.00176934)
(0.110923 0.0130373 0.00225995)