/*--------------------------------*- C++ -*----------------------------------*\
| =========                 |                                                 |
| \\      /  F ield         | OpenFOAM: The Open Source CFD Toolbox           |
|  \\    /   O peration     | Version:  5.0                                   |
|   \\  /    A nd           | Web:      www.OpenFOAM.org                      |
|    \\/     M anipulation  |                                                 |
\*---------------------------------------------------------------------------*/
FoamFile
{
    version     2.0;
    format      ascii;
    class       volScalarField;
    location    "0";
    object      nut;
}
// * * * * * * * * * * * * * * * * * * * * * * * * * * * * * * * * * * * * * //

dimensions      [0 2 -1 0 0 0 0];

internalField   nonuniform List<scalar> 
7200
(
1.9992e-08
6.88392e-09
1.18686e-09
7.16377e-10
8.47353e-10
5.53221e-09
1.16058e-08
7.42575e-09
9.37119e-10
2.69973e-09
5.9838e-09
1.46425e-09
6.04051e-09
1.11427e-08
9.27053e-09
6.93973e-09
4.53864e-09
3.85343e-08
7.80033e-08
4.45363e-08
1.04814e-07
2.03338e-08
4.35975e-09
1.94928e-09
3.52879e-09
1.2173e-08
2.99403e-08
2.29288e-08
2.33453e-09
2.466e-08
4.25769e-08
2.48492e-08
2.66201e-08
3.61258e-08
2.02921e-08
1.70432e-08
2.27644e-08
9.62208e-08
3.97262e-07
1.9192e-07
8.17005e-06
5.27958e-06
8.90581e-08
1.91428e-08
3.35512e-09
2.32692e-08
6.73706e-08
6.68949e-08
1.20419e-08
1.6633e-07
1.25123e-06
3.15575e-06
2.7084e-06
6.8701e-07
1.79981e-07
5.44489e-08
5.69087e-08
5.5717e-07
4.42054e-06
6.68854e-06
2.10297e-05
2.39078e-05
3.95392e-06
1.41098e-06
7.00994e-07
3.66673e-07
4.80931e-07
2.59137e-07
8.88473e-08
4.28496e-08
9.86908e-08
5.49275e-07
9.34438e-07
9.3407e-06
9.56821e-06
1.18858e-06
1.65091e-06
1.36327e-06
3.104e-07
1.74192e-06
5.26182e-06
2.7119e-05
1.51274e-05
3.04948e-06
3.13741e-06
2.87678e-06
7.23626e-07
2.93567e-06
9.68923e-07
3.49613e-07
4.68634e-07
8.68871e-07
1.41016e-06
5.31376e-06
2.60375e-05
2.04629e-05
2.39927e-06
2.74261e-06
8.86931e-06
7.97839e-06
1.3666e-06
2.05186e-05
3.1407e-05
1.42686e-05
2.34993e-06
3.43504e-06
2.25248e-06
4.89971e-06
4.39314e-06
2.27377e-06
1.58236e-06
6.22269e-06
4.8151e-06
4.7766e-06
2.35144e-05
3.54728e-05
1.51413e-06
1.35986e-06
2.36598e-06
1.75395e-05
5.71288e-06
3.28394e-06
1.86316e-05
1.64584e-05
5.77863e-06
1.6634e-06
3.39023e-06
1.72106e-06
6.77905e-06
6.86278e-06
9.3862e-06
1.22662e-05
4.07403e-06
7.24929e-06
1.11477e-05
3.06567e-05
1.0412e-05
4.90067e-06
3.71421e-06
4.2046e-06
1.67829e-06
4.47398e-06
4.22431e-06
6.34957e-06
3.34057e-06
3.83187e-06
2.798e-06
3.08853e-06
5.73051e-06
4.56813e-06
3.57432e-06
1.53265e-05
5.94736e-06
9.5816e-06
9.96712e-06
2.00645e-05
2.04688e-05
8.60535e-06
7.59916e-06
3.28759e-06
6.84965e-06
4.03518e-06
4.05682e-06
3.23079e-06
6.0207e-06
5.92947e-06
1.8471e-06
1.91498e-06
1.7161e-06
9.21289e-07
1.56538e-05
1.12947e-05
4.65422e-06
8.9231e-06
3.92613e-06
4.38767e-06
6.62084e-06
5.25918e-06
4.13564e-06
4.68645e-06
1.32017e-05
3.75285e-05
7.54972e-06
2.91595e-06
2.60174e-06
6.13638e-06
3.65251e-06
1.07882e-05
9.18394e-06
5.12122e-06
3.39545e-06
1.24993e-05
1.17692e-05
8.03748e-06
4.12253e-06
4.59106e-06
6.65026e-06
3.07857e-06
1.49567e-06
1.68887e-06
7.53463e-06
1.49552e-05
2.7901e-05
1.02862e-05
2.84425e-06
1.33418e-05
1.38837e-05
6.63397e-06
1.50713e-05
1.23771e-05
6.26078e-06
2.02477e-06
6.61512e-06
1.07723e-05
3.90595e-06
7.76931e-06
2.73506e-05
1.48065e-05
3.59756e-06
6.65924e-06
1.28695e-05
3.98012e-06
2.64606e-05
3.35156e-05
2.78522e-05
1.14142e-05
8.64827e-06
1.30847e-05
1.16929e-05
7.10853e-06
4.27424e-06
4.2555e-06
7.60451e-06
1.43249e-05
1.44957e-05
9.1253e-06
3.66506e-05
3.08775e-05
1.25857e-05
1.65911e-05
1.21752e-07
1.21181e-07
5.16231e-08
1.12777e-08
4.33048e-09
6.21367e-09
7.79285e-09
5.63447e-09
2.41037e-09
1.51582e-09
1.32776e-09
1.42635e-09
5.96504e-09
1.75398e-08
3.12717e-08
6.77843e-08
1.41745e-07
1.72753e-07
2.65886e-08
1.96072e-08
2.97673e-07
3.60187e-07
9.11717e-08
7.70836e-08
6.14966e-08
2.17745e-08
3.50334e-08
2.20345e-08
1.40422e-08
1.88013e-08
3.31743e-09
3.30325e-09
1.12446e-08
3.25216e-08
4.94774e-08
9.3093e-08
1.92023e-07
1.28719e-07
3.46313e-08
5.68564e-08
4.38206e-06
5.03167e-06
5.13775e-07
2.48031e-07
2.09027e-07
2.90207e-07
4.6099e-07
1.27832e-07
6.47091e-07
7.48328e-07
7.08373e-07
6.37854e-07
3.47463e-07
1.41499e-07
9.31369e-08
5.46142e-08
3.36125e-07
3.64742e-07
2.53139e-07
1.50793e-07
1.9619e-06
8.49511e-06
1.30318e-05
5.54865e-06
4.26202e-06
9.01861e-07
1.23483e-06
2.43581e-07
2.22528e-07
1.62074e-07
1.11655e-07
2.20845e-06
2.04926e-06
5.12374e-06
2.45815e-06
2.02286e-06
1.88352e-06
8.96389e-07
1.12153e-06
1.0192e-06
8.22254e-07
1.07006e-05
2.57238e-05
9.81614e-06
8.34409e-06
3.97662e-06
2.37383e-06
5.52601e-06
1.62148e-06
1.3996e-06
6.29944e-07
5.57887e-07
1.81277e-06
3.8342e-06
5.77765e-06
2.8998e-06
1.55721e-06
1.31237e-06
1.37383e-06
3.00646e-06
4.21761e-06
2.53253e-06
8.71927e-06
1.76009e-05
2.35614e-05
2.72506e-05
3.59732e-05
1.75496e-05
5.86052e-06
5.11501e-06
5.64437e-06
4.84317e-06
9.53833e-06
5.41235e-06
7.89159e-06
8.67438e-06
2.34235e-06
1.46613e-06
1.69581e-06
1.46313e-06
6.15424e-06
2.2611e-06
6.56085e-06
1.24951e-05
4.3083e-06
1.44038e-05
9.17004e-06
8.35212e-06
1.4003e-05
4.65887e-06
4.58512e-06
6.49416e-06
2.67084e-05
3.08452e-05
6.01768e-06
4.40333e-06
3.22928e-06
2.66813e-06
2.43219e-06
4.03753e-06
4.06277e-06
5.32972e-06
6.51194e-06
2.15408e-05
1.41288e-05
5.86815e-06
6.0871e-06
4.9903e-06
3.6913e-06
9.00827e-06
7.74324e-06
8.23994e-06
8.84503e-06
3.97395e-05
6.23861e-06
3.32306e-06
8.58747e-06
1.41044e-05
9.73341e-06
4.31836e-06
1.33345e-05
3.42039e-06
3.06271e-06
4.83987e-06
1.31264e-05
1.71231e-05
5.23913e-06
4.09909e-06
8.12399e-06
1.42713e-05
8.11814e-06
2.29741e-06
1.06936e-05
1.89452e-05
7.8127e-06
2.7276e-06
2.64955e-06
8.07582e-06
6.78133e-06
8.35013e-06
1.75226e-05
1.68818e-05
6.84757e-06
6.30871e-06
4.13107e-06
4.75079e-06
1.39829e-05
8.36462e-06
1.86315e-05
5.87709e-06
2.68024e-06
1.13714e-05
8.88553e-06
6.17398e-06
4.34847e-06
2.93938e-06
8.83466e-06
2.82432e-05
1.57929e-05
1.10981e-05
4.22172e-06
3.19813e-06
1.12782e-05
1.21403e-05
4.51702e-06
6.18069e-06
3.40226e-06
8.32819e-06
2.40685e-05
2.5197e-05
1.27788e-05
7.92155e-06
8.02981e-06
4.82604e-06
2.88027e-06
3.04388e-06
4.30949e-06
4.66146e-06
7.3542e-06
7.43909e-06
5.2795e-06
2.98284e-06
1.78617e-06
2.36012e-06
3.51778e-06
1.88295e-06
3.01414e-06
5.77581e-06
7.65599e-06
8.53632e-06
2.25791e-05
2.81901e-05
1.76225e-05
9.65894e-06
5.37393e-06
3.16657e-06
8.96005e-06
5.51972e-06
1.97657e-06
6.04117e-06
1.01351e-07
2.1068e-07
8.08765e-08
1.00604e-08
4.34131e-09
3.47713e-09
3.06815e-09
2.2124e-09
7.91153e-10
1.55311e-09
5.63853e-09
1.34342e-08
1.32993e-08
8.37492e-09
4.4468e-08
1.48522e-07
1.16125e-07
3.90669e-08
8.62415e-09
2.14494e-08
1.90747e-07
3.72103e-07
1.73764e-07
3.71236e-08
3.05473e-08
2.48975e-08
1.77876e-08
1.39671e-08
2.10454e-09
3.07534e-09
8.41278e-09
2.79235e-08
3.07282e-08
4.91539e-08
1.90678e-07
3.69754e-07
2.16659e-07
8.23874e-08
1.77335e-08
4.36158e-08
4.96446e-07
8.85212e-07
6.4434e-07
3.76297e-07
3.81896e-07
3.59774e-07
4.21182e-07
4.28519e-07
1.44698e-07
6.45844e-08
1.6833e-08
9.70807e-08
7.21865e-08
4.85874e-08
1.81198e-07
9.03938e-07
1.68665e-06
1.10092e-06
4.79666e-07
1.21714e-07
3.20316e-06
1.86233e-06
1.83721e-06
2.31628e-06
3.90246e-06
4.39629e-06
4.59269e-06
3.61438e-06
8.17512e-07
5.46341e-07
6.13486e-07
2.23474e-06
3.29149e-06
2.76684e-06
8.57577e-07
1.70611e-07
5.11116e-07
2.98828e-07
1.58215e-06
8.77204e-06
8.15216e-06
4.24771e-06
3.61935e-06
2.17225e-06
4.49272e-06
4.62542e-06
4.19047e-06
2.23302e-06
1.77358e-06
1.04689e-06
1.00005e-06
3.53754e-06
3.43263e-06
1.87164e-06
1.89943e-06
8.24831e-06
2.62914e-06
2.19585e-06
1.22337e-06
2.67237e-06
6.77169e-06
4.96852e-06
6.62827e-06
2.62872e-06
8.53935e-06
7.23944e-06
5.68877e-06
6.64493e-06
1.50889e-05
1.59837e-05
7.94356e-06
3.0184e-06
7.33511e-06
2.0259e-06
6.10041e-06
1.9278e-05
2.73705e-06
3.21416e-06
5.48288e-06
1.40605e-05
1.37379e-05
8.7557e-06
6.1782e-06
6.14451e-06
4.92526e-06
6.43346e-06
5.73462e-06
1.7012e-05
3.43375e-05
4.4745e-05
3.38264e-05
1.7832e-05
5.30233e-06
1.36552e-05
5.98321e-06
1.7481e-05
2.11156e-05
1.67627e-05
1.00925e-05
1.73337e-05
1.16355e-05
9.73768e-06
5.99833e-06
7.84419e-06
6.36362e-06
2.86696e-06
3.00781e-06
1.11411e-05
2.7004e-05
5.66334e-05
4.64684e-05
7.89762e-06
2.62237e-05
3.55844e-05
2.22971e-05
1.24734e-05
1.40959e-05
2.26967e-05
1.83375e-05
1.71666e-05
1.62538e-05
1.65666e-05
1.45488e-05
5.77974e-06
1.09391e-05
2.31079e-05
2.85234e-05
5.97271e-06
3.65597e-06
6.26962e-06
6.4541e-06
5.66786e-06
1.0814e-05
9.61257e-06
7.35249e-06
1.83827e-05
2.17102e-06
3.2577e-06
2.95266e-06
9.70287e-06
3.32284e-06
5.3279e-06
7.8984e-06
6.13663e-06
6.03048e-06
4.08225e-06
2.41424e-06
1.07213e-05
2.80908e-05
4.99961e-06
4.07687e-06
3.4639e-06
4.83544e-06
3.87158e-06
8.42469e-06
6.06106e-06
7.29832e-06
8.61591e-06
6.48999e-06
2.0227e-05
2.79369e-06
2.38055e-05
1.41395e-05
1.17516e-05
3.34712e-06
5.12292e-06
4.91789e-06
4.02222e-06
7.02399e-06
7.47235e-06
3.7207e-06
4.59894e-06
4.3849e-06
4.09978e-06
8.25665e-06
6.51392e-06
4.03024e-06
1.83726e-05
1.11508e-05
6.67049e-06
5.21954e-06
1.04935e-05
9.7286e-06
4.18886e-06
2.62267e-06
2.97753e-06
3.45674e-06
4.31856e-06
2.70173e-06
2.54595e-06
6.32865e-06
6.57014e-06
2.26931e-06
1.29848e-06
2.04375e-06
2.15355e-06
1.25693e-05
3.47084e-06
2.09138e-06
4.83574e-06
1.71243e-07
8.2498e-08
1.95393e-08
1.33236e-09
1.07561e-10
1.54191e-10
6.95827e-10
1.37304e-09
1.72827e-09
3.6082e-09
6.7163e-09
8.95222e-09
1.70935e-08
6.3737e-08
1.4862e-07
1.22329e-07
2.8698e-08
1.57993e-08
5.37637e-08
1.18769e-07
3.15398e-07
1.70318e-07
3.93441e-08
2.7989e-09
4.34613e-10
5.63185e-10
2.32988e-09
3.76814e-09
4.7868e-09
6.80115e-09
1.63061e-08
2.02389e-08
5.8572e-08
1.63522e-07
4.60557e-07
2.64259e-07
7.96377e-08
5.91422e-08
1.17283e-07
2.37631e-07
8.77453e-07
5.5132e-07
1.2648e-07
2.02766e-08
2.02163e-08
1.01814e-08
1.47358e-08
1.31275e-08
8.31261e-09
1.60008e-08
2.63624e-08
2.46141e-08
7.01109e-08
3.66865e-07
1.90523e-06
3.26298e-06
1.9308e-06
5.9761e-07
1.51652e-07
4.01967e-07
1.21129e-06
9.76156e-07
5.15177e-07
1.01961e-06
1.61554e-06
9.75877e-07
8.64253e-07
9.44278e-07
8.01352e-07
5.95675e-07
2.21108e-07
2.17606e-07
1.36967e-06
8.9351e-08
1.79503e-07
3.56137e-06
4.30169e-06
2.41605e-06
2.34789e-06
3.62515e-06
5.75565e-06
2.59047e-06
1.94103e-06
2.19296e-06
3.57904e-06
3.56389e-06
1.7164e-06
2.53675e-06
3.94697e-06
4.04434e-06
3.83998e-06
6.59355e-07
5.0545e-07
8.45114e-07
2.54794e-07
1.79511e-06
3.73373e-06
3.2748e-06
8.41064e-06
7.73257e-06
1.65253e-05
3.74031e-06
2.93019e-06
4.04331e-06
3.36279e-06
5.02193e-06
5.59943e-06
4.48703e-06
6.98113e-06
5.92437e-06
3.07733e-06
1.39187e-06
1.66246e-06
1.94305e-06
9.4992e-06
9.70742e-06
3.80083e-06
3.92907e-06
1.07236e-05
2.46865e-05
3.19002e-05
3.02123e-06
3.4028e-06
1.53648e-05
3.91159e-06
3.72329e-06
1.99094e-06
6.24827e-06
8.85944e-06
1.08707e-05
1.06236e-05
4.4537e-06
3.50575e-06
4.86718e-06
9.8695e-06
9.34355e-06
1.29341e-05
9.22313e-06
2.79743e-05
2.80177e-05
9.809e-06
9.00042e-06
5.48646e-06
6.79641e-06
1.91283e-05
6.49858e-06
4.55139e-06
4.71154e-06
9.59816e-06
1.22858e-05
1.22076e-05
5.48164e-06
1.28356e-05
8.97607e-06
1.48892e-05
1.54833e-05
4.70425e-06
2.13942e-05
2.28256e-05
2.58538e-05
2.66977e-05
1.18525e-05
9.17343e-06
6.05065e-06
1.16004e-05
1.87029e-05
1.91705e-05
1.04224e-05
1.74e-05
1.0492e-05
3.42441e-06
3.79353e-06
1.1326e-05
9.02118e-06
3.57311e-05
1.65505e-05
3.9739e-06
6.89906e-06
2.65898e-06
9.75359e-06
1.03368e-05
6.47553e-06
1.67474e-05
1.20092e-05
4.29475e-06
1.63099e-05
6.12939e-06
7.09031e-06
8.4752e-06
4.04701e-06
2.21385e-06
5.63149e-06
8.67381e-06
5.58472e-06
1.74157e-05
1.33735e-05
2.03463e-05
5.57272e-06
3.95081e-06
5.75549e-06
1.66261e-05
1.278e-05
9.15228e-06
1.03024e-05
1.02694e-05
6.05016e-06
6.42254e-06
6.50978e-06
6.0028e-06
2.87874e-06
4.09362e-06
1.80049e-05
1.74358e-05
2.5737e-06
4.30721e-06
9.68751e-06
4.47788e-06
1.13705e-05
6.81241e-06
4.95833e-06
3.31144e-06
5.69182e-06
6.97397e-06
3.52724e-06
3.06918e-06
3.63343e-06
4.92098e-06
7.61872e-06
1.88764e-06
2.34024e-06
3.05507e-06
2.75596e-06
3.21496e-06
3.32351e-06
3.69027e-06
4.34734e-06
1.70598e-05
4.03224e-06
4.05e-06
8.12817e-06
7.97396e-09
1.01348e-08
3.33599e-09
2.97883e-09
9.03653e-09
3.38657e-09
3.52753e-10
1.2536e-09
1.73024e-09
4.1774e-09
2.08186e-08
2.91889e-08
1.31029e-08
1.64825e-09
9.19489e-10
2.17334e-09
1.31626e-09
5.98308e-09
1.08928e-08
6.33448e-09
1.58683e-07
2.7784e-08
7.94269e-09
7.30633e-09
2.01649e-08
6.54287e-09
6.93004e-09
2.07091e-09
5.96985e-09
1.80851e-08
1.56338e-08
1.95482e-08
8.48498e-09
3.36486e-09
1.77738e-09
2.87956e-09
3.44747e-09
1.40054e-08
2.87511e-08
2.07153e-08
2.96729e-07
1.04252e-06
6.14285e-08
2.25045e-08
2.49286e-08
7.94284e-09
1.37245e-08
6.16961e-08
1.38537e-07
7.08227e-08
8.66442e-08
3.05827e-07
3.45841e-07
7.36563e-08
1.94222e-08
1.89601e-08
4.79034e-08
1.59452e-08
1.51743e-07
2.60324e-07
6.32219e-06
6.22101e-06
3.26661e-06
6.95675e-06
7.47569e-07
2.59041e-07
4.71203e-08
9.16608e-08
3.43157e-07
1.18873e-06
1.02925e-06
4.9418e-07
7.4448e-07
2.3591e-06
1.03636e-06
2.27944e-08
4.37686e-07
4.11512e-07
1.3903e-07
1.78284e-06
1.34064e-06
2.28126e-06
6.67843e-07
9.62332e-07
1.43663e-06
5.91677e-07
4.83393e-07
3.58606e-07
7.21403e-07
1.20097e-06
9.04244e-07
1.34565e-06
8.93284e-07
2.63834e-07
1.82095e-06
1.0022e-06
1.74138e-06
5.68897e-06
2.07782e-07
3.67815e-07
1.31371e-05
1.85277e-05
6.26985e-06
3.02889e-06
3.47718e-06
2.33392e-06
5.09062e-06
4.4641e-06
1.56852e-06
7.71225e-07
1.05813e-06
3.89454e-06
7.98579e-06
1.95227e-06
1.67336e-06
9.85565e-07
1.29506e-06
7.79823e-06
1.32354e-05
2.88061e-06
1.65205e-05
6.61393e-06
2.79048e-05
7.12027e-06
2.78757e-06
1.33839e-06
3.63799e-06
7.46168e-06
8.09035e-06
3.50185e-06
2.9845e-06
4.25536e-06
3.94476e-06
2.44455e-06
2.55307e-06
3.05639e-06
3.7764e-06
2.59714e-06
3.89205e-06
1.23152e-05
5.01147e-06
5.26212e-06
5.52219e-06
2.01924e-05
4.62233e-06
2.26492e-06
9.27277e-06
1.00369e-05
2.46012e-05
2.92427e-05
4.21829e-06
3.90722e-06
1.6651e-06
2.68705e-06
2.73621e-06
8.05442e-06
3.11179e-05
4.43813e-06
7.86145e-06
1.4129e-05
2.99603e-05
1.45529e-05
2.10663e-05
4.62962e-06
2.45789e-05
1.14454e-05
1.01624e-05
7.70593e-06
4.23935e-05
2.29705e-05
1.47061e-05
2.47701e-05
5.86173e-06
4.36997e-06
6.57392e-06
4.83061e-06
1.71892e-05
7.36452e-06
9.63788e-06
8.71116e-06
1.46521e-05
1.35728e-05
1.95125e-05
8.28758e-06
8.75141e-06
9.25894e-06
7.32883e-06
3.37016e-05
1.70589e-05
1.67435e-05
1.50831e-05
8.09122e-06
1.42954e-05
6.35039e-06
8.13245e-06
7.70024e-06
1.27456e-05
2.14379e-06
2.88245e-06
4.44979e-06
2.26086e-05
9.36501e-06
1.07298e-05
1.1545e-05
6.643e-06
5.42046e-06
8.24423e-06
1.65969e-05
1.04769e-05
4.62083e-06
6.85875e-06
2.41763e-05
4.18474e-05
6.39293e-05
3.70248e-05
2.10047e-05
6.99722e-06
5.97298e-06
3.04397e-06
3.07224e-06
6.37065e-06
3.98293e-06
7.06126e-06
3.37242e-06
4.71361e-06
5.85075e-06
5.65946e-06
1.2375e-05
5.94621e-06
4.21358e-06
5.75559e-06
7.47796e-06
7.08283e-06
1.55507e-05
2.82907e-05
3.20733e-05
1.7084e-05
5.23071e-06
8.32971e-06
1.30669e-05
2.91671e-08
6.2732e-09
1.57658e-09
1.80042e-09
2.63043e-10
7.79155e-09
2.69314e-08
2.02379e-08
1.90726e-08
1.70205e-08
1.07429e-08
9.37895e-09
1.40395e-08
1.095e-08
1.90686e-09
1.72214e-09
3.00868e-09
5.60137e-09
2.76394e-08
4.94298e-08
7.9078e-08
9.399e-09
8.52581e-09
1.08562e-08
1.03033e-09
9.17064e-09
4.50301e-08
5.73991e-08
5.72217e-08
6.04882e-08
5.23922e-08
3.66652e-08
4.23682e-08
2.35192e-08
4.40473e-09
5.5153e-09
7.36601e-09
3.4637e-08
7.31891e-08
1.28602e-07
2.63653e-07
4.03368e-08
2.56606e-08
1.39622e-07
4.94754e-08
1.65883e-08
5.32904e-08
3.12351e-07
3.39477e-07
2.73445e-07
3.91167e-07
2.84671e-07
1.32195e-07
1.29604e-07
6.15255e-08
2.98878e-08
1.87724e-08
1.54669e-07
3.26783e-07
3.68656e-07
1.71185e-06
7.00021e-08
4.84365e-08
1.6445e-07
3.68451e-06
2.80371e-06
1.65951e-06
2.4648e-06
1.84305e-06
2.17722e-06
1.79843e-06
2.30807e-06
1.71716e-06
5.58082e-07
1.1108e-07
2.04663e-07
7.38104e-08
1.91196e-07
9.54121e-07
4.15039e-06
3.21437e-06
1.72191e-06
1.95095e-07
6.32968e-07
3.40138e-06
3.19447e-06
1.9808e-06
7.48876e-06
1.54737e-05
4.39244e-07
1.57962e-06
5.7089e-06
6.47667e-06
2.90611e-06
6.05253e-07
9.72312e-07
8.20851e-07
1.1728e-06
5.7789e-07
2.71961e-06
1.97108e-06
1.71964e-06
2.66002e-06
2.11538e-06
3.31986e-06
1.86562e-06
2.99515e-06
8.75889e-06
1.4172e-05
5.70577e-06
4.08859e-06
2.7651e-06
2.06497e-05
2.84904e-05
2.07622e-05
7.06235e-06
4.11543e-06
4.2886e-06
6.95066e-06
4.43564e-06
1.0349e-05
1.07566e-05
3.33873e-06
1.08953e-06
3.33771e-06
1.61218e-05
1.49333e-05
5.25547e-06
9.9107e-06
1.23208e-05
7.61462e-06
6.67126e-06
2.0633e-05
2.85606e-05
2.59669e-05
1.18553e-05
6.8281e-06
2.7196e-06
3.39217e-06
4.06487e-06
5.37935e-06
1.72563e-05
1.11729e-05
5.27786e-06
3.3328e-06
8.05632e-06
1.20535e-05
9.92781e-06
1.10427e-05
9.63081e-06
4.69223e-06
2.24851e-06
1.75773e-06
6.60804e-06
5.43072e-06
2.45289e-06
4.90216e-06
2.92985e-06
1.239e-06
1.80038e-06
6.20947e-06
8.10414e-06
1.57498e-05
5.57405e-06
1.25366e-05
7.68182e-06
8.29018e-06
6.29367e-06
3.78653e-06
6.82414e-06
4.71261e-06
5.40138e-06
3.4479e-06
8.55021e-06
5.15556e-06
1.98639e-06
2.66532e-06
2.39865e-06
4.11111e-06
2.60063e-06
5.88454e-06
1.05081e-05
2.78189e-05
1.37464e-05
2.00796e-05
1.02033e-05
6.79936e-06
4.48565e-06
1.0979e-05
1.5805e-05
5.46065e-06
8.13118e-06
7.3602e-06
2.28065e-05
1.01881e-05
8.77153e-06
1.83917e-06
3.40824e-06
5.01584e-06
5.17404e-06
4.2236e-06
1.43679e-05
5.23682e-06
8.26015e-06
1.51029e-05
2.32695e-05
1.35769e-05
6.6351e-06
4.1764e-06
1.50581e-05
9.89631e-06
1.886e-05
5.9761e-06
4.67043e-06
6.17528e-06
4.25071e-06
7.42425e-06
1.2251e-05
4.18438e-06
4.38373e-06
2.08249e-05
2.20805e-05
4.03602e-05
1.52353e-05
5.12051e-06
1.07786e-05
4.41653e-06
2.19805e-05
1.46361e-05
1.04476e-05
8.51029e-06
8.46243e-06
1.73133e-05
1.33507e-05
9.27421e-06
1.33545e-05
1.24251e-05
6.80578e-06
7.0044e-06
1.72808e-05
3.03792e-08
1.97227e-08
1.05144e-08
4.67339e-08
1.79307e-09
3.74935e-09
1.46644e-08
4.97056e-08
2.45987e-08
1.87369e-09
6.12676e-10
1.95672e-09
2.94292e-09
5.5568e-09
4.82147e-09
4.07993e-09
8.2842e-09
8.80867e-09
1.21522e-08
1.92575e-08
5.48461e-08
3.46939e-08
2.71923e-08
8.67765e-08
5.44821e-09
7.11634e-09
3.4229e-08
8.22226e-08
2.00848e-08
7.09692e-09
4.39005e-09
8.89049e-09
1.43144e-08
2.04442e-08
1.30301e-08
1.4121e-08
2.43354e-08
3.44451e-08
3.16078e-08
3.15812e-08
5.6228e-08
1.11895e-07
7.43437e-08
3.05284e-07
2.27864e-07
8.95269e-08
1.48073e-07
6.98826e-07
7.34789e-08
5.43629e-08
5.89374e-08
1.38241e-07
1.73338e-07
2.66651e-07
1.54556e-07
3.82315e-08
2.81553e-08
6.26423e-07
6.66731e-07
3.31998e-07
4.75653e-06
2.38417e-07
2.40206e-07
6.24428e-06
1.00811e-05
6.97101e-06
5.95345e-06
1.03224e-05
3.75722e-06
8.08211e-07
1.89095e-07
8.80652e-07
2.0579e-06
1.79358e-06
7.29123e-07
6.64278e-07
1.94726e-07
3.16767e-07
9.02171e-06
8.42684e-06
9.1425e-06
5.85738e-06
1.72519e-06
1.05078e-06
1.18485e-05
9.59787e-06
8.15556e-06
9.8031e-06
1.68028e-05
2.24785e-06
2.00327e-06
1.62103e-06
2.9904e-06
3.69498e-06
2.56521e-06
5.99366e-06
1.49452e-06
1.90666e-06
1.52818e-06
1.16788e-05
5.80854e-06
5.92362e-06
1.14293e-05
3.64472e-06
5.49938e-06
1.31884e-05
7.38654e-06
2.82753e-05
1.55291e-05
1.62051e-05
1.94273e-05
2.33753e-06
7.04932e-06
1.84705e-05
1.47672e-05
2.60717e-05
2.48591e-05
7.10905e-06
4.25206e-06
4.27943e-06
5.55407e-06
2.65174e-06
1.37462e-05
1.45379e-06
4.48126e-06
5.05197e-05
2.37623e-05
3.54922e-05
1.03538e-05
5.14064e-06
2.10834e-05
1.08715e-05
5.57152e-06
1.7998e-05
3.28907e-05
2.4346e-05
2.11538e-05
1.26411e-05
4.45008e-06
2.51199e-06
5.28319e-06
8.82522e-06
1.02974e-05
1.03512e-05
3.27628e-06
1.60814e-05
4.55223e-05
3.10481e-05
1.6766e-05
5.20034e-06
6.15958e-06
4.07389e-06
4.8367e-06
6.60105e-06
1.17389e-05
8.27985e-06
1.16046e-05
9.67287e-06
4.3433e-06
2.39305e-06
8.91955e-06
3.20559e-05
2.32036e-05
5.99549e-06
7.83218e-06
1.22942e-05
1.46175e-05
1.19861e-05
6.64859e-06
9.87968e-06
3.54044e-06
1.54933e-05
1.85215e-05
4.29497e-06
3.83303e-06
2.49059e-06
6.53052e-06
4.33255e-06
5.48505e-06
6.86076e-06
9.12569e-06
3.00523e-06
1.34567e-05
5.00773e-06
7.1028e-06
1.77712e-05
9.39701e-06
7.62679e-06
6.49635e-06
1.73741e-05
1.02156e-05
1.51663e-05
8.21743e-06
7.50765e-06
4.77506e-06
6.2868e-06
1.49263e-06
4.1826e-06
4.13555e-06
7.71771e-06
4.43623e-06
7.82406e-06
1.10073e-05
6.01207e-06
8.01034e-06
1.32468e-05
1.04591e-05
3.81095e-06
6.37172e-06
1.56052e-05
1.42997e-05
3.046e-05
5.10136e-06
4.56297e-06
4.0087e-06
4.38176e-06
3.06751e-06
8.535e-06
8.79761e-06
5.00567e-06
1.19591e-05
9.78515e-06
1.43827e-05
1.20194e-05
4.02271e-06
5.38035e-06
3.91593e-06
2.41358e-05
1.08962e-05
9.15089e-06
4.17216e-06
1.20966e-05
1.40149e-05
1.93336e-05
5.48288e-06
9.84347e-06
5.67615e-06
2.51462e-06
3.65489e-06
7.44471e-06
5.94147e-09
1.20748e-08
5.02303e-08
5.30948e-07
3.25412e-07
1.4457e-07
8.40344e-08
9.72155e-09
3.14252e-08
5.84508e-08
3.9098e-08
9.57755e-09
6.47552e-09
4.37988e-09
6.06494e-10
1.8849e-09
1.57183e-09
4.63425e-09
2.4181e-08
1.66817e-08
1.02458e-08
7.95423e-08
4.00501e-07
1.81716e-06
1.16895e-06
3.75298e-07
2.7435e-07
3.00114e-08
9.26251e-08
1.07608e-07
4.67587e-08
1.6916e-08
1.71843e-08
1.41544e-08
2.03189e-09
1.2479e-08
1.82096e-08
9.84e-09
6.63737e-08
5.85775e-08
8.76178e-07
1.01192e-06
4.69292e-06
1.69833e-06
1.96939e-06
1.03956e-05
9.29206e-06
6.97794e-06
1.06391e-06
1.33458e-06
1.15764e-07
5.02846e-08
5.89308e-08
6.11642e-08
1.89601e-08
1.89233e-07
5.84437e-07
6.52444e-07
4.55613e-07
3.49126e-07
7.35003e-06
1.97148e-06
3.70187e-06
4.84325e-06
4.93531e-06
1.15567e-05
2.38943e-05
3.29456e-05
2.60884e-05
1.20497e-05
1.42636e-05
5.25471e-06
8.8769e-07
1.07763e-06
6.13025e-07
3.60158e-07
2.54511e-06
3.62985e-06
2.21601e-06
4.95832e-06
4.54555e-06
6.68549e-06
6.01756e-06
8.44364e-06
5.54537e-06
2.4877e-06
2.897e-06
2.00807e-05
3.04698e-05
1.48738e-05
1.57526e-05
1.3595e-05
4.65493e-06
3.43964e-06
1.85321e-06
3.80897e-06
5.63507e-06
3.5228e-06
4.20566e-06
2.26868e-06
2.59997e-06
4.35411e-06
5.69617e-06
4.70295e-06
6.69732e-06
7.27138e-06
4.18114e-06
6.05088e-06
5.50878e-06
1.02698e-05
1.29549e-05
6.37057e-06
1.44644e-05
4.27375e-06
3.24401e-06
4.83194e-06
6.5272e-06
6.48353e-06
1.08618e-05
4.63081e-06
1.82044e-05
4.28271e-06
3.66096e-06
3.6032e-06
4.8111e-06
3.37192e-06
1.46254e-05
1.56425e-05
1.13323e-05
6.82529e-06
6.39746e-06
1.42105e-05
2.09403e-05
1.36253e-05
7.05014e-06
4.86177e-06
3.29628e-06
6.76166e-06
5.65783e-06
8.14637e-06
2.42314e-05
1.00726e-05
2.3649e-06
7.22068e-06
8.25103e-06
2.56309e-06
5.41622e-06
4.76189e-05
1.3474e-05
5.75675e-06
7.93891e-06
4.42604e-06
5.50124e-06
8.1179e-06
5.8792e-06
2.29839e-05
2.17855e-05
2.92892e-06
1.77665e-06
3.68889e-06
1.48477e-05
5.01442e-06
1.83393e-06
6.80418e-06
5.47652e-06
1.83629e-05
2.27975e-05
1.73504e-05
2.5126e-05
1.02937e-05
6.0763e-06
2.91873e-06
4.23279e-06
2.59911e-06
1.5085e-05
1.11843e-05
1.24196e-05
1.62375e-05
3.06898e-06
1.10355e-05
1.02472e-05
5.26334e-06
3.53323e-06
5.8853e-06
3.87358e-06
4.93684e-06
9.71534e-06
1.07134e-05
6.54632e-06
1.73275e-05
6.91822e-06
2.74558e-06
5.37467e-06
4.75684e-06
1.73012e-05
1.91964e-05
5.40583e-06
1.99219e-05
6.54112e-06
7.11097e-06
4.2556e-06
2.82821e-05
2.66591e-05
8.56642e-06
1.17081e-05
1.52439e-05
1.96377e-05
1.04899e-05
6.75704e-06
4.57302e-06
3.77835e-06
5.68244e-06
6.86431e-06
4.52176e-06
8.47336e-06
6.02152e-06
3.8009e-06
3.52388e-06
3.98376e-06
1.22689e-05
7.21342e-06
7.11875e-06
8.29309e-06
9.39386e-06
2.71238e-06
6.57917e-06
8.25806e-06
3.66137e-06
2.89543e-06
4.89047e-06
6.61667e-06
8.62887e-06
9.49685e-06
1.79953e-05
2.12579e-05
2.55985e-05
1.4107e-05
4.14633e-06
3.92441e-06
4.22644e-06
4.25535e-09
1.09156e-08
2.19056e-08
9.55261e-09
1.22189e-07
1.91068e-07
9.4779e-08
1.15659e-07
1.66436e-07
9.72004e-08
1.75559e-08
3.53217e-09
9.91393e-09
1.59251e-08
1.15103e-09
7.9717e-09
5.80328e-09
9.00514e-09
2.66725e-08
2.61187e-08
9.0591e-09
2.33201e-08
4.12345e-08
5.19925e-08
2.54021e-07
4.08245e-07
1.92118e-07
3.63216e-07
4.90189e-07
1.79422e-07
1.87758e-08
8.84955e-09
2.64329e-08
4.8304e-08
3.70193e-09
2.09376e-08
2.61389e-08
4.65274e-08
6.13453e-08
4.85229e-08
1.66816e-08
3.19424e-08
5.54626e-07
4.76512e-06
1.05577e-06
7.68056e-07
1.62685e-06
1.60887e-06
2.87494e-06
2.11396e-06
1.08774e-06
1.03775e-07
9.39108e-08
2.39207e-07
2.44873e-07
1.3329e-07
1.24181e-07
6.21568e-07
1.26779e-06
8.58809e-08
3.46599e-07
9.97579e-07
1.46524e-07
1.52556e-06
4.81486e-06
1.68094e-06
4.34688e-06
9.35848e-06
1.31492e-05
7.3361e-06
6.65586e-06
5.53742e-06
5.85099e-06
7.28046e-06
6.7311e-06
3.95075e-06
7.17486e-07
1.06239e-06
5.89398e-06
4.582e-06
1.27188e-06
1.8956e-06
4.52992e-07
1.42075e-06
3.86683e-06
3.62955e-06
7.49193e-06
1.10015e-05
1.94986e-05
9.34136e-06
7.29967e-06
1.26335e-05
6.37733e-06
3.22407e-06
5.57761e-06
3.90625e-06
4.25844e-06
5.36068e-06
8.78974e-06
3.60262e-06
4.4695e-06
3.29304e-06
5.28138e-06
6.42671e-06
3.74548e-06
4.83221e-06
7.87559e-06
4.66149e-06
1.03335e-05
6.58636e-06
6.50865e-06
2.09131e-05
1.7497e-05
1.0443e-05
1.12353e-05
7.40294e-06
5.8284e-06
2.48531e-06
4.61938e-06
2.98067e-06
3.84119e-06
5.81782e-06
7.01461e-06
1.26594e-05
5.54108e-06
1.12021e-05
1.45362e-05
6.6181e-06
2.17085e-05
2.77861e-05
1.96219e-05
1.35188e-05
1.70181e-05
1.78207e-05
1.43243e-05
2.66741e-06
4.77737e-06
3.33692e-06
9.56058e-06
7.10931e-06
8.16015e-06
8.65429e-06
7.00117e-06
6.77594e-06
7.18118e-06
1.00455e-05
7.39048e-06
5.43998e-06
1.02867e-05
1.05534e-05
7.72021e-06
6.05217e-06
4.16953e-06
2.33716e-05
2.23778e-05
1.35537e-05
7.68243e-06
4.43435e-06
7.81581e-06
5.70388e-06
5.76003e-06
8.89699e-06
1.56449e-05
2.82146e-05
9.35946e-06
8.9461e-06
1.37582e-05
8.84252e-06
9.0182e-06
6.04081e-06
4.71659e-06
4.41175e-06
3.57337e-06
3.58144e-06
8.27847e-06
1.19501e-05
8.28525e-06
5.43111e-06
1.12621e-05
9.82137e-06
7.92793e-06
5.02399e-06
8.48049e-06
1.94119e-05
1.39203e-05
1.06894e-05
5.92628e-06
4.24885e-06
1.13811e-05
1.6245e-05
5.9136e-06
3.62596e-06
8.49027e-06
6.0532e-06
1.28944e-05
2.91556e-05
1.11764e-05
8.05223e-06
5.76192e-06
1.09745e-05
6.79016e-06
1.14126e-05
6.56698e-06
3.08815e-05
3.04439e-05
5.3855e-06
1.08358e-05
4.63397e-06
6.50788e-06
5.37071e-06
3.15638e-06
4.38146e-06
1.07097e-05
7.30026e-06
2.65991e-05
1.6228e-05
6.73068e-06
5.5452e-06
4.52383e-06
4.61494e-06
4.47617e-06
7.92116e-06
5.51365e-06
3.7933e-06
4.66764e-06
3.23141e-06
4.00589e-06
1.89057e-06
2.38879e-06
1.7354e-06
6.79574e-06
1.8407e-05
2.38803e-05
6.98183e-06
6.55001e-06
7.63204e-06
6.75147e-06
1.1837e-05
1.28642e-05
1.13853e-05
1.94873e-08
1.59933e-08
2.85243e-08
1.64741e-08
3.18697e-08
6.63513e-08
1.55984e-08
1.11919e-08
1.38338e-07
3.43077e-07
8.34209e-08
4.7154e-09
2.51411e-09
6.65392e-09
1.02481e-08
3.43283e-09
2.37912e-08
1.05862e-08
1.31515e-07
1.30415e-07
6.00761e-08
1.5482e-07
1.91925e-07
7.65177e-08
1.82169e-07
2.51834e-07
3.87151e-08
5.08654e-08
3.60945e-07
5.62621e-07
2.20845e-07
5.31675e-09
1.26983e-08
2.48647e-08
4.39547e-08
1.01146e-08
6.34325e-08
2.76675e-08
2.28546e-07
2.44226e-07
1.38238e-07
4.01502e-07
2.15703e-06
2.50015e-06
3.31273e-07
8.356e-07
5.23219e-07
4.9226e-07
2.95601e-06
6.79033e-07
2.50478e-07
4.60174e-08
1.18818e-07
6.50248e-08
1.78746e-07
4.68819e-07
2.7521e-07
2.63223e-07
9.93855e-07
7.05388e-07
1.68204e-07
3.55522e-07
1.69747e-06
6.46445e-06
4.53898e-06
1.45312e-06
2.52018e-06
8.34929e-06
1.95082e-06
1.00555e-05
5.75556e-06
3.29037e-06
3.94431e-06
1.08502e-05
7.62368e-06
2.29563e-06
1.9311e-06
7.53713e-07
1.17605e-06
2.39595e-06
1.43177e-06
9.56178e-07
1.17814e-06
1.79709e-06
6.61072e-06
3.96058e-06
2.35499e-06
9.21016e-06
4.89343e-06
1.26284e-05
3.67526e-05
3.26869e-05
9.10866e-06
9.54539e-06
1.61727e-05
6.76338e-06
4.55087e-06
3.80335e-06
8.76109e-06
5.36724e-06
7.08631e-06
1.90919e-06
8.55169e-06
1.85204e-06
4.62436e-06
4.11611e-06
1.09636e-05
1.07967e-05
9.82257e-06
1.57392e-05
4.94694e-05
8.00858e-05
3.33974e-05
6.04009e-06
9.39072e-06
1.05959e-05
4.69055e-06
2.70209e-06
2.615e-06
1.22031e-05
2.84119e-06
3.61595e-06
6.38391e-06
4.59858e-06
1.55726e-05
7.43926e-06
2.08178e-05
5.43386e-06
6.27525e-06
1.18577e-05
1.36896e-05
2.18658e-05
5.38854e-05
3.32256e-05
8.19803e-06
3.12692e-06
1.08093e-05
4.52745e-06
4.13283e-06
1.11732e-05
1.90589e-06
3.71632e-06
1.22981e-05
6.79923e-06
1.4902e-05
1.00739e-05
1.03465e-05
1.17907e-05
1.22284e-05
8.85904e-06
4.11625e-06
7.79289e-06
6.20181e-06
5.1595e-05
5.60845e-05
1.01478e-05
7.0389e-06
7.16287e-06
3.58684e-06
2.64121e-06
3.1994e-06
2.12741e-05
3.66033e-05
2.69969e-05
8.00271e-06
1.14874e-05
1.6593e-05
1.97782e-05
1.245e-05
4.78424e-06
4.64845e-06
1.2312e-05
7.6089e-06
1.7053e-05
2.83346e-05
1.68677e-05
8.16891e-06
5.19706e-06
2.65403e-05
1.38992e-05
4.70792e-06
2.05778e-05
9.35351e-06
7.1306e-06
9.59889e-06
1.0373e-05
9.49447e-06
2.59443e-06
4.91746e-06
7.6018e-06
3.84442e-06
1.57866e-05
1.24783e-05
9.6887e-06
1.39163e-05
1.76529e-05
7.91544e-06
4.18715e-06
2.17988e-05
2.3127e-05
4.93927e-06
8.25819e-06
2.32875e-06
6.37823e-06
2.09987e-05
1.11688e-05
4.22819e-06
1.89609e-06
6.41121e-06
3.44419e-06
4.91438e-06
1.12675e-05
1.79673e-05
1.34886e-05
1.14492e-05
7.81383e-06
3.83027e-06
4.61552e-06
1.00832e-05
8.41896e-06
7.97799e-06
1.25411e-05
8.91556e-06
5.51935e-06
1.11142e-05
7.08613e-06
2.67466e-06
2.44092e-06
2.25303e-06
2.54644e-06
9.08874e-06
3.31423e-05
3.86211e-05
5.66873e-06
2.18924e-06
4.19766e-06
7.72068e-06
6.46712e-06
7.28543e-06
9.64893e-06
8.47053e-09
9.02931e-09
2.66092e-08
2.97793e-08
3.37796e-08
6.83314e-08
4.5163e-09
2.09058e-08
9.62812e-08
4.40337e-08
1.16e-08
1.62222e-09
7.0396e-10
4.10954e-09
5.59058e-09
3.86305e-09
2.18893e-09
7.08574e-09
4.72476e-08
4.20413e-08
3.34878e-08
8.35441e-08
1.04877e-07
1.41762e-08
7.46223e-08
4.91513e-07
2.38029e-08
6.61972e-08
8.34509e-08
1.68431e-08
2.99769e-08
5.39551e-09
1.13868e-08
1.28776e-08
1.40959e-08
8.78752e-09
6.49693e-09
1.16172e-08
8.91727e-08
5.73691e-08
1.35054e-07
2.62532e-07
1.84996e-07
6.55092e-07
5.42188e-07
2.23394e-06
1.13156e-07
2.38407e-07
2.16367e-06
5.93921e-07
5.03949e-08