/*--------------------------------*- C++ -*----------------------------------*\
| =========                 |                                                 |
| \\      /  F ield         | OpenFOAM: The Open Source CFD Toolbox           |
|  \\    /   O peration     | Version:  5.0                                   |
|   \\  /    A nd           | Web:      www.OpenFOAM.org                      |
|    \\/     M anipulation  |                                                 |
\*---------------------------------------------------------------------------*/
FoamFile
{
    version     2.0;
    format      ascii;
    class       volScalarField;
    location    "0";
    object      p;
}
// * * * * * * * * * * * * * * * * * * * * * * * * * * * * * * * * * * * * * //

dimensions      [0 2 -2 0 0 0 0];

internalField   nonuniform List<scalar> 
7200
(
1.02305e-05
-8.59487e-05
-2.25506e-05
4.57814e-05
4.74088e-05
-2.3499e-05
2.08711e-05
0.000140121
0.000117377
3.31957e-05
-4.02943e-05
-0.000114717
-1.14033e-05
0.000110708
7.74482e-05
6.88864e-05
0.000170911
0.000164208
0.000112809
9.07168e-05
7.12747e-06
-9.1999e-05
-2.58919e-05
5.83159e-05
2.03523e-05
-2.47389e-05
1.97131e-05
0.00014056
8.0565e-05
1.15414e-05
-4.10406e-05
-9.96607e-05
-1.37992e-05
0.000109554
7.57508e-05
6.68198e-05
0.000180122
0.000165224
0.000111987
8.59445e-05
-7.48102e-05
-0.000118468
-4.06209e-05
3.95012e-05
1.91322e-05
-3.15103e-05
6.88795e-05
0.000142081
8.51861e-05
1.28597e-05
-8.75864e-05
-0.000109428
3.88279e-05
9.7752e-05
6.49662e-05
6.11675e-05
0.000173978
0.000155882
9.21096e-05
8.36127e-05
-5.66121e-05
-0.000167871
-4.81454e-05
3.69218e-05
1.94599e-05
-2.31775e-05
1.57174e-05
0.000164774
0.000103613
2.56143e-05
-4.47722e-05
-0.000143229
-4.82732e-05
6.11902e-05
9.29918e-06
9.80186e-05
0.000168489
0.000177683
0.000134016
0.000101116
2.12497e-05
-0.000150385
-0.000104525
-1.96726e-05
1.894e-05
-2.29965e-05
3.49941e-06
0.00012149
0.000120733
7.06975e-05
-4.52794e-05
-0.000132191
-8.05196e-06
0.000107172
-2.52595e-05
-5.4558e-06
0.000153721
0.000165305
0.000100143
9.71382e-05
0.000124059
-0.000164257
-0.000193718
-7.04831e-05
2.2528e-05
-1.57193e-05
2.68099e-05
0.000104694
9.1326e-05
6.86239e-05
-4.20182e-05
-0.000105917
5.32729e-05
0.000215882
1.36392e-05
-4.35997e-05
0.000131637
0.000154708
0.000159426
0.00015521
0.000172824
-5.86408e-05
-0.000166724
-5.44611e-05
1.59734e-05
-7.90779e-06
-1.16377e-05
6.76686e-05
6.44593e-05
2.45091e-05
-2.64337e-05
-7.71399e-05
4.72983e-05
0.000242015
0.000117825
-1.65296e-05
8.71867e-05
0.000133224
0.000174204
0.000157835
0.000164549
5.93314e-05
-3.87951e-05
-5.51853e-05
1.91416e-05
-6.66732e-06
-1.64673e-05
5.55257e-05
5.85443e-05
3.31473e-05
-9.6163e-06
-4.02148e-05
8.15438e-05
0.000185527
0.000118652
1.36511e-05
5.39406e-05
0.000129279
0.000179947
0.000168258
0.000119223
9.03926e-05
4.42932e-05
8.49191e-07
1.99533e-05
-2.0873e-05
-3.68027e-06
6.77162e-05
7.92776e-05
5.54037e-05
-1.54226e-05
-2.97253e-06
8.03068e-05
0.000138842
0.000135976
2.84495e-05
4.00786e-05
8.61706e-05
0.000159017
0.000149419
8.05211e-05
5.20276e-05
3.93825e-05
4.83497e-05
4.47397e-05
-1.12126e-05
-4.30614e-05
-2.07577e-05
5.26389e-05
5.75491e-05
4.91531e-05
5.97714e-06
1.99455e-05
0.000109777
0.000161627
4.61444e-05
2.76398e-05
7.08276e-05
0.000147604
0.00014459
9.95352e-05
7.14172e-05
2.36059e-05
5.31906e-05
4.3318e-05
-5.27443e-07
-1.8161e-05
-2.8753e-05
-1.30211e-05
1.02469e-05
5.95272e-05
4.99407e-05
1.91863e-05
0.000141589
0.000173207
3.40947e-05
-4.41573e-05
2.68108e-05
0.000141508
0.000112511
0.000109433
7.05344e-05
8.50151e-06
-2.75878e-06
6.98046e-06
2.38279e-05
1.808e-05
-2.38312e-06
1.11952e-05
4.39371e-05
7.40352e-05
8.32853e-05
4.20106e-05
5.10489e-05
0.000111276
2.77532e-05
-2.9056e-05
3.06798e-05
7.63575e-05
0.00010017
0.000111411
2.56969e-05
-4.81889e-05
-2.86834e-05
2.84501e-05
-1.47177e-05
-1.66465e-05
3.79396e-05
8.66901e-06
6.36753e-06
-2.08525e-06
-4.39529e-05
2.03329e-05
0.00014761
0.000182813
0.000170747
0.000233392
0.000268619
0.000215674
0.000162072
0.000124163
0.000134774
-5.22485e-05
2.01916e-05
3.87661e-05
-1.51533e-05
-1.7791e-05
3.38648e-05
8.01211e-06
-1.95991e-05
-2.17699e-06
-3.84631e-05
1.91445e-05
0.000173092
0.000169156
0.000169564
0.000246854
0.000188747
9.52242e-05
0.000164856
8.0286e-05
-2.92468e-05
2.46441e-05
8.29845e-06
3.20264e-05
-2.41519e-05
-1.87751e-05
3.084e-05
-4.49327e-05
-1.84743e-06
6.15854e-06
7.84949e-06
5.2003e-05
0.000171726
0.000178857
0.000168473
0.000250246
0.00015443
9.61336e-05
6.30573e-05
8.08825e-05
0.000115716
-2.33357e-06
-3.20331e-05
-2.45462e-06
-5.09956e-05
-6.43729e-05
-6.89771e-05
-7.22439e-05
2.82603e-05
6.67177e-06
-1.2253e-05
-3.72917e-05
0.000144863
0.000156775
0.000158885
0.000225967
0.000260364
8.34324e-05
7.43616e-05
4.80475e-05
9.13144e-06
-6.84776e-06
-8.94366e-05
-2.93658e-05
-4.72132e-05
-6.4115e-05
-4.23122e-05
-4.68042e-05
6.55293e-07
8.53634e-06
-0.00010554
-5.48394e-05
5.8144e-05
0.000128019
0.000126331
0.000165531
0.000148706
9.42176e-05
0.000259637
0.000191446
5.82167e-05
6.18365e-05
-5.75777e-05
-6.49065e-05
-9.0941e-05
-0.000129665
-6.96256e-05
-7.87018e-05
-1.93474e-05
-2.90272e-06
-7.30208e-05
-9.02655e-05
7.54896e-05
0.000116105
9.55016e-05
0.000135135
0.000176218
0.000105427
0.000161115
0.000206654
7.97251e-05
5.03255e-05
-1.15808e-05
-9.30427e-06
-8.59975e-05
-7.55012e-05
-3.68094e-05
-5.92454e-05
-3.30887e-05
1.55684e-05
-4.86814e-05
-7.25122e-05
-7.65834e-05
0.000115851
0.000119484
7.25573e-05
8.36731e-05
0.000115278
0.000229397
0.000260425
0.000132662
3.3018e-05
-6.32263e-05
-1.9613e-05
-2.56964e-05
-4.57109e-05
-2.88654e-05
3.86158e-06
-5.93113e-05
-3.52816e-05
-3.47294e-05
-5.01244e-05
-2.92604e-05
0.000149201
0.000107293
8.19909e-05
0.000104762
0.000139399
0.000178874
0.000168994
0.000162364
0.000115353
0.000154949
2.8988e-06
-6.76605e-05
-6.90048e-05
5.64873e-05
-1.48696e-05
-2.58018e-05
-2.41057e-05
-1.55962e-05
9.87118e-07
3.40041e-05
9.09247e-05
4.47258e-05
2.12456e-05
9.48153e-05
0.000131457
0.000143341
0.000111051
0.000113697
0.000180025
0.000180491
2.13858e-05
-4.85534e-05
-6.21165e-05
-7.04129e-06
-1.26435e-05
3.94373e-06
1.27697e-05
-7.48559e-06
3.87975e-05
0.000109947
7.51098e-05
5.25734e-05
4.39869e-05
5.85746e-05
0.000106312
0.000101434
0.000136775
0.000119608
9.49486e-05
0.000124715
8.63941e-05
-9.48389e-06
-3.13099e-05
-1.81395e-05
-4.25203e-05
-1.62591e-06
3.21154e-05
2.57299e-05
3.4144e-05
6.69242e-05
0.000115492
5.17268e-05
1.79013e-05
6.45727e-05
0.000133958
0.000125508
0.000122624
0.000109897
6.7106e-05
7.1024e-05
5.15642e-05
3.38136e-05
2.77496e-05
1.7501e-05
2.09817e-05
3.10501e-05
4.8077e-05
4.08716e-05
2.14157e-05
3.56e-05
6.84915e-05
5.78358e-05
1.82782e-05
7.12359e-05
9.83446e-05
0.000107666
0.000131598
0.000421354
0.000418959
0.000204579
9.60319e-05
4.91175e-05
-6.7998e-06
-3.49158e-05
-5.17443e-05
-3.90923e-06
4.88891e-05
6.27703e-05
6.49443e-05
9.26363e-05
0.000139403
9.23128e-05
1.63417e-05
-8.25095e-05
-8.45821e-05
-2.40291e-05
0.000126618
0.00047157
0.000423034
0.000144986
9.64837e-05
4.91523e-05
-1.88844e-05
-3.54469e-05
-4.17149e-05
-4.56492e-06
4.85885e-05
6.45671e-05
6.84631e-05
0.000118137
0.00013221
9.15493e-05
-2.90352e-05
-8.65511e-05
-8.82679e-05
-2.75771e-05
0.000223097
0.000422952
0.000439448
0.000148795
9.69961e-05
4.80027e-05
-9.61681e-06
-3.7829e-05
-4.35968e-05
-5.27122e-06
4.70599e-05
5.68499e-05
6.04572e-05
9.324e-05
0.000140386
8.01955e-05
-4.20033e-05
-0.000100948
-7.72746e-05
-3.9253e-05
7.10517e-05
0.000424592
0.000487727
0.000160815
7.89506e-05
1.36711e-05
-2.92161e-05
-4.75633e-05
-4.66635e-05
2.71031e-05
5.35081e-05
3.66635e-05
3.21229e-05
7.29144e-05
0.000133117
2.56558e-05
-3.90326e-05
-0.000106202
-0.000101092
-5.68587e-05
3.09676e-05
0.00048565
0.000518745
0.00027432
7.42797e-05
8.47618e-06
-2.02396e-05
-6.57611e-05
-6.76461e-05
-6.59767e-06
5.99086e-05
2.66543e-05
2.63359e-06
7.81762e-05
0.000101586
-1.76501e-05
-5.18147e-05
-6.83287e-05
-8.08232e-05
-5.66407e-05
1.94581e-05
0.000384335
0.00049076
0.000316307
5.80443e-05
-2.36984e-06
-2.02578e-05
-4.5987e-05
-7.45325e-05
-5.77034e-05
1.27337e-05
3.30634e-05
-2.96565e-05
5.48002e-05
7.93662e-05
-5.06728e-05
-4.12256e-05
-3.59922e-05
-4.2498e-05
-4.23832e-05
7.47285e-05
0.000187193
0.000387769
0.000359714
3.39642e-05
-6.11255e-06
-2.27999e-05
-3.35106e-05
-0.000121668
-0.000128315
-4.53794e-05
9.9074e-07
-4.15569e-05
-4.68102e-05
3.40141e-05
-6.61338e-05
-6.49059e-05
-4.28477e-05
-2.4134e-05
-1.00985e-05
6.08585e-05
0.000174908
0.000314661
0.000261536
8.34421e-05
-2.74986e-05
-3.29405e-05
-1.28194e-05
-0.000102582
-0.000141274
-0.000108088
3.37921e-06
-7.12519e-05
-4.07109e-05
1.09571e-05
-2.19186e-05
-3.19632e-05
-4.17898e-06
5.26555e-06
-4.76461e-06
5.06283e-05
0.000117367
0.000174125
0.000209476
4.72415e-05
-6.64056e-06
-2.01456e-05
3.66644e-05
-1.10776e-06
-2.4465e-05
-3.83991e-05
-8.11653e-06
3.32299e-05
5.15807e-05
3.00491e-05
-5.13233e-05
-1.6167e-05
3.55569e-05
5.36033e-05
2.72452e-05
7.88751e-05
0.000128372
0.000157328
0.000155811
0.000123581
6.99711e-05
1.27711e-05
1.27002e-05
-2.98698e-06
4.08432e-05
2.68832e-05
-1.50835e-05
5.91601e-05
8.30375e-05
2.57731e-05
-1.92795e-06
1.40126e-05
6.08518e-05
7.9989e-05
6.32706e-05
9.95893e-05
8.51267e-05
0.000103921
0.000114589
0.00012116
5.28277e-05
-1.52926e-05
4.29989e-06
3.3306e-05
4.49512e-05
6.96021e-05
5.88897e-05
3.3679e-05
4.70847e-05
5.13765e-05
5.22594e-05
4.97994e-05
7.05653e-05
0.000105685
0.000117159
0.00011189
9.44812e-05
9.69017e-05
0.000102932
8.16016e-05
5.8182e-05
3.8495e-05
2.9257e-05
4.85211e-05
6.93275e-05
7.97308e-05
5.04027e-05
2.54433e-05
3.03477e-05
5.20209e-05
4.08518e-05
3.35451e-05
7.3326e-05
9.53613e-05
0.000114126
0.000253569
0.000407544
0.00033478
0.000153543
9.49499e-05
7.945e-05
1.65094e-05
-2.32768e-05
-2.68499e-05
2.88614e-05
7.13465e-05
7.29376e-05
6.11061e-05
7.17973e-05
7.91825e-05
6.36917e-07
-6.63422e-05
-8.09348e-05
-2.25232e-05
8.33075e-05
0.000332297
0.000409865
0.000336911
0.000154186
9.47034e-05
7.91602e-05
1.60683e-05
-2.33862e-05
-8.52223e-06
2.92384e-05
7.53519e-05
7.28817e-05
5.93918e-05
7.19547e-05
7.97476e-05
-3.54143e-05
-6.97799e-05
-7.26662e-05
-2.57011e-05
8.05518e-05
0.000249072
0.000418993
0.000345165
0.000110845
9.70145e-05
7.82525e-05
-4.05184e-06
-2.41711e-05
-8.09963e-06
5.28913e-05
7.42055e-05
6.44908e-05
5.49702e-05
8.17005e-05
5.05019e-05
-1.30078e-05
-8.81333e-05
-9.14869e-05
-3.37779e-05
7.06625e-05
0.000335426
0.000452493
0.000371101
0.000108721
9.236e-05
5.23658e-05
1.50024e-05
-3.36562e-05
-2.60871e-05
3.87661e-05
7.7594e-05
4.9844e-05
3.3107e-05
7.59134e-05
7.50418e-05
-7.57902e-05
-8.95591e-05
-8.52289e-05
-3.69682e-05
8.81665e-05
0.000291554
0.000467741
0.000397592
0.000104408
9.92448e-05
8.32283e-05
2.28442e-05
-2.07247e-05
1.18924e-05
5.63092e-05
8.48197e-05
4.17753e-05
1.5016e-05
6.94113e-05
7.84526e-05
-6.6068e-05
-5.69843e-05
-6.61681e-05
-4.88329e-05
-4.12567e-06
0.000170829
0.000412537
0.000397716
8.85806e-05
7.83436e-05
7.45474e-05
2.77244e-05
-1.00331e-05
1.06392e-05
7.8084e-05
9.81865e-05
3.17792e-05
-4.79181e-06
6.94482e-05
5.53124e-05
-2.13875e-05
-2.98367e-05
-6.16376e-05
-8.34734e-05
-6.09708e-05
3.87866e-05
0.000300127
0.000368676
0.000104777
3.42841e-05
2.40138e-05
3.45447e-05
-1.15034e-05
-3.5819e-05
4.07118e-06
5.44484e-05
2.94239e-05
-2.22591e-05
2.3419e-05
4.66691e-05
-2.00629e-05
-4.90854e-05
-2.59313e-05
-6.11654e-05
-8.11825e-05
1.67266e-05
0.000171291
0.000360972
0.000305247
3.01868e-06
1.53591e-05
4.2778e-05
8.28017e-05
-6.1203e-05
-3.88281e-05
-2.1222e-05
2.87243e-05
-1.70712e-05
9.91147e-06
2.06306e-05
-4.00345e-05
-2.60552e-05
-1.24029e-05
-5.99723e-06
-4.66196e-05
-1.59912e-05
0.000149778
0.0002175
0.000251365
6.73096e-05
3.38643e-05
-2.57615e-06
7.68861e-05
3.00359e-05
1.68426e-05
-2.08462e-05
1.57964e-05
3.56755e-05
5.48312e-05
-4.73122e-05
-5.23108e-05
-6.52091e-06
5.07124e-05
7.17042e-05
-1.33303e-05
2.38831e-05
0.000106556
0.0001431
0.000129664
0.000123038
7.08305e-05
2.70622e-05
2.70673e-05
7.41108e-05
8.46208e-05
3.07049e-05
-5.69936e-05
3.31796e-05
8.21798e-05
1.09392e-06
-2.35015e-05
6.92113e-06
7.4172e-05
0.000117684
5.33368e-05
4.59572e-05
5.43191e-05
0.000104293
0.00011446
0.000111001
5.87339e-05
7.37243e-06
2.08497e-05
4.74396e-05
8.18835e-05
6.72075e-05
-1.77696e-05
-3.60392e-05
3.53729e-05
2.75979e-05
2.01304e-05
4.34905e-05
8.20967e-05
0.000140705
0.000122233
0.000104923
9.69063e-05
0.000105772
0.000108581
9.2919e-05
7.8652e-05
2.38632e-05
1.52967e-05
6.89973e-05
0.000103607
0.000104152
5.98655e-05
3.35062e-05
2.10482e-05
3.91503e-05
1.96828e-05
2.86969e-05
7.43427e-05
9.26105e-05
0.000113339
0.00016879
0.000178761
0.000112459
3.04036e-05
9.56012e-05
0.000166996
5.7145e-05
-3.48904e-05
-1.63654e-05
6.49388e-05
0.00012132
0.000121922
8.71683e-05
2.91153e-05
-6.90944e-06
4.64228e-06
6.06777e-05
8.3747e-05
9.16739e-05
0.000137378
0.000113848
0.000178503
0.000111377
2.83226e-05
9.45899e-05
0.000169013
-1.18266e-05
-3.52815e-05
1.56599e-05
6.53893e-05
0.000157463
0.000162771
0.000125956
8.25416e-06
-7.92628e-06
5.83037e-06
0.000109734
8.46518e-05
9.12219e-05
0.000137125
0.000166641
8.80596e-05
0.000106566
2.09944e-05
0.000146449
0.000132347
4.34344e-05
-6.2113e-05
2.35462e-05
0.000119963
0.000158779
0.000155298
0.000126439
3.26998e-05
-1.28378e-05
3.6922e-05
9.06927e-05
0.000124609
0.000106194
0.000145207
7.88305e-05
4.38842e-05
9.95397e-05
-1.08483e-05
0.000146941
0.000194952
4.96925e-05
-7.68445e-05
-2.34117e-05
8.70444e-05
0.000157486
0.000104638
5.18818e-05
3.05677e-05
-1.34727e-05
4.32174e-05
0.000132725
0.000128246
8.20723e-05
0.000137073
6.59489e-05
1.25424e-05
-7.46631e-06
-3.64106e-05
0.000132931
0.000176638
5.17644e-05
-4.71655e-05
2.44832e-05
6.81996e-05
0.000153829
0.000158411
7.65275e-05
2.36434e-05
-4.47772e-06
6.02744e-06
0.000144372
9.43011e-05
0.000120612
0.000133611
1.49066e-05
-2.22756e-05
2.15948e-06
-1.72236e-05
4.12824e-05
0.000163115
2.89025e-06
-0.00013038
-5.02612e-06
8.07761e-05
0.000147382
0.000156443
8.57272e-05
3.93079e-05
-3.82999e-06
-1.1107e-06
0.000118072
5.22866e-05
9.70165e-06
9.05255e-05
7.22585e-05
7.63709e-05
1.20419e-05
-3.51925e-05
7.82357e-05
0.000129305
6.83612e-05
-8.46096e-05
-9.97579e-05
2.40957e-05
9.51978e-05
0.000130995
0.000129362
5.11501e-05
-1.92545e-05
3.38172e-05
0.000101876
0.000103348
0.000110772
3.77267e-05
8.89231e-05
6.64613e-05
5.27748e-05
2.01348e-05
2.61691e-05
0.000129008
9.32044e-05
2.44551e-05
-0.000119326
-8.0512e-05
3.83389e-05
5.24464e-05
0.000100947
5.01628e-05
-5.53031e-05
-5.54426e-06
3.25624e-05
0.000163783
0.000105462
5.02569e-05
7.14883e-06
8.25907e-05
0.000102668
8.46776e-05
-1.09861e-05
9.26386e-05
7.77976e-05
4.94392e-05
-0.000143589
-0.000139806
-0.000129096
-9.80724e-06
9.53232e-05
8.27397e-05
1.34357e-05
-4.39428e-06
-1.44069e-05
0.000130926
0.000110503
1.32037e-05
-1.82333e-05
-2.39156e-06
4.59109e-05
7.98668e-05
9.7538e-05
0.000126926
8.06233e-05
-2.6807e-05
-2.24403e-05
-9.68758e-05
-0.00017231
-0.000172073
-3.6425e-05
8.04243e-05
4.65132e-05
-8.02123e-06
2.17804e-05
0.000125209
0.000149651
3.36066e-05
-1.8782e-05
-6.60086e-06
8.09309e-05
0.00012762
0.000119719
0.000110016
2.4307e-05
2.38909e-05
6.85149e-05
5.43982e-05
-4.34503e-05
-0.000133597
-0.000181056
-0.000127293
-0.000102698
-6.42648e-05
5.35771e-05
9.76327e-05
0.000148778
0.000127935
9.41965e-05
8.31224e-05
8.68117e-05
0.000111742
8.87565e-05
0.000124731
8.65267e-05
8.20462e-06
7.70587e-05
0.000111295
9.07135e-05
4.96994e-05
2.69537e-05
-4.31432e-05
-8.91832e-05
-4.10142e-05
2.44031e-05
7.89624e-05
9.86182e-05
0.000102889
6.25296e-06
-1.30272e-05
1.7434e-05
3.40628e-05
9.66944e-05
0.000123625
1.84668e-05
-3.82855e-05
2.68327e-05
7.43295e-05
0.000173482
0.000209496
0.000227689
9.40504e-05
-3.95116e-05
-1.22713e-05
7.74167e-05
0.000146632
0.000133117
6.29034e-05
5.19772e-06
-6.32154e-06
2.55161e-05
3.4462e-05
0.000123256
0.000123812
1.84535e-05
-8.82212e-06
3.7281e-05
7.35341e-05
0.000174075
0.000209808
0.0001944
2.2438e-05
-4.57975e-05
2.07342e-05
7.76722e-05
0.000152374
0.000134347
3.92472e-05
-2.63829e-06
-1.23929e-05
1.59719e-05
5.07363e-05
0.000123496
0.000124512
1.72906e-05
-4.84838e-06
2.61101e-05
0.0001129
0.000174948
0.000209282
0.000195338
9.06826e-05
-5.1752e-05
-1.5805e-05
0.000115964
0.000157274
0.000136707
3.24155e-05
-4.63025e-05
-3.30957e-05
8.90826e-06
3.85474e-05
0.00011937
0.000120005
-1.11828e-06
-6.94904e-05
-9.06715e-06
5.13313e-05
0.000185952
0.000193124
0.000222813
7.29112e-05
-7.39767e-05
-2.66791e-05
0.000124116
0.000164767
0.000144975
2.50092e-06
-6.43028e-05
-4.259e-05
2.80553e-05
4.5998e-05
0.000111063
0.000106719
-3.85723e-05
-0.000101542
-9.16516e-05
0.00010303
0.00017993
0.000170739
0.000191207
-5.05423e-05
-0.000100437
5.41661e-06
0.000135174
0.000175941
0.000111162
-1.06907e-05
-6.21039e-05
-3.1348e-05
3.54968e-05
4.82191e-05
9.60961e-05
3.25713e-05
-6.97666e-05
-0.000148767
-0.000111793
9.29188e-05
0.000190571
0.000160486
0.000168264
-8.59008e-06
-0.000157779
-7.62066e-05
9.13206e-05
0.000202922
0.000167177
3.27516e-05
-4.38141e-05
-4.63905e-05
4.54369e-05
5.22994e-05
8.40306e-05
-2.85698e-06
-9.72816e-05
-0.000158932
-0.000137797
6.28402e-05
0.000176046
0.000168796
0.000143939
-9.30696e-06
-0.000162331
-3.0243e-05
7.67323e-05
0.000239386
0.000184637
1.82948e-05
-7.11649e-06
-6.22995e-05
4.37446e-05
7.436e-05
8.91055e-05
3.33229e-05
-3.24969e-06
-1.13227e-05
-0.000111237
8.66093e-06
0.000113412
0.000179672
0.000161248
1.94486e-05
-0.000125959
-6.17513e-05
0.000118486
0.000198936
0.00019776
9.50214e-05
-9.49586e-07
-4.02396e-05
-1.58242e-05
8.37349e-05
8.28602e-05
2.15827e-05
3.2559e-05
5.11123e-05
-2.41093e-05
-1.97528e-05
8.42275e-05
0.00012802
0.000174156
4.89653e-05
-7.53631e-05
-5.20727e-05
4.76141e-05
0.000147396
0.000180471
0.000107913
4.89266e-05
-3.34234e-06
3.51899e-05
8.31524e-05
8.7148e-05
6.09541e-05
5.07822e-05
5.3234e-05
-3.09926e-05
-4.23337e-05
-1.1119e-05
5.09357e-05
9.78563e-05
1.25074e-05
-3.55498e-05
-3.98213e-05
6.95605e-05
0.000140131
0.000168784
0.000137138
7.79427e-05
9.17457e-06
8.68793e-05
0.000110131
8.6494e-05
6.10253e-05
5.10768e-05
3.18528e-05
5.63633e-06
-3.68863e-07
2.44145e-05
1.85027e-05
3.93434e-05
3.04452e-05
-6.14646e-06
2.93042e-05
6.21503e-05
8.67175e-05
0.000115658
0.000126629
8.77612e-05
6.79442e-05
4.28309e-05
8.38011e-05
8.19655e-05
8.44576e-05
7.08219e-05
1.61675e-05
2.8888e-05
5.64016e-05
7.59353e-05
7.23372e-05
4.18795e-05
2.06988e-05
3.70879e-06
-1.0083e-05
4.58636e-05
7.3649e-05
0.000102331
0.000100387
-1.83747e-05
-2.88649e-05
4.62309e-06
3.07427e-05
0.000117618
9.86027e-05
-5.3395e-05
-6.96369e-05
8.92152e-05
9.75338e-05
0.00018747
0.000240982
0.00030755
0.00016944
-8.11877e-06
-1.24108e-05
4.59358e-05
0.000110194
9.30701e-05
1.25861e-05
-1.95495e-05
-2.12506e-05
4.13427e-06
2.92475e-05
0.000133278
9.85184e-05
-5.4524e-05
-7.21133e-05
9.55315e-05
9.74965e-05
0.000211625
0.000240358
0.000282271
0.000170262
-9.0651e-06
6.85369e-06
4.50953e-05
0.000119095
9.33837e-05
1.17761e-05
-3.05765e-05
-4.16198e-05
2.43585e-06
2.26973e-05
0.000114172
9.9272e-05
-5.82243e-05
-8.05083e-05
0.000103645
0.000126409
0.000187342
0.00027665
0.000314531
0.000169904
-1.53185e-05
-1.74351e-05
4.10635e-05
0.000120786
5.4768e-05
3.29346e-06
-8.24903e-05
-7.34942e-05
-1.64569e-05
5.53999e-05
0.000102694
9.44638e-05
-0.000127961
-6.17512e-05
8.64831e-05
9.29151e-05
0.000185758
0.000266138
0.000292182
0.000156846
-4.23409e-05
-1.8228e-05
6.10586e-05
0.000125519
6.11583e-05
-3.71225e-05
-0.000100537
-0.000109084
-1.37621e-06
4.21461e-05
0.000121738
8.44729e-05
-5.99942e-05
-0.000178688
6.34623e-06
9.52413e-05
0.000199265
0.000257666
0.000318633
2.17861e-05
-7.65797e-05
-6.14879e-05
3.82924e-05
0.000190332
0.00017343
7.08126e-06
-6.07503e-05
-0.000118594
-5.72642e-05
5.85325e-05
0.000119257
5.73605e-05
-8.26246e-05
-0.000192559
6.07156e-06
1.35989e-05
0.000119792
0.000239602
0.000283841
-2.52386e-05
-0.000151507
-0.000146987
-8.06496e-05
0.000141085
0.000252277
1.01174e-05
-5.59061e-05
-8.82699e-05
1.05083e-05
6.54109e-05
0.000141103
-8.66517e-05
-0.000236137
-0.000261599
-3.87562e-05
2.53688e-05
0.000106061
0.000201608
0.000293417
8.56271e-05
-0.000180421
-0.00015478
-9.05188e-05
0.000132487
0.000256978
7.87488e-05
-2.70283e-05
-8.72934e-05
9.98719e-06
7.86767e-05
0.000134003
1.20292e-05
-0.00017203
-0.000159832
-8.03947e-05
4.38177e-05
0.000107977
0.000192602
0.000299238
0.000112408
-0.000136705
-8.13867e-05
-2.71281e-05
0.000128104
0.000208417
0.000135306
5.43118e-06
-6.48344e-05
-1.34671e-05
0.000121333
0.000123791
-3.17508e-05
-3.18893e-05
1.09013e-05
-7.05275e-05
-3.88131e-05
8.13486e-05
0.000132279
0.000215668
5.18051e-06
-0.000121397
-4.46116e-05
2.00686e-05
0.000129897
0.00016872
0.000104895
4.25833e-05
1.61144e-05
4.67224e-05
0.000103367
0.000103131
6.15382e-05
6.75291e-06
2.49138e-05
-9.83559e-06
-9.44814e-06
4.58615e-05
8.9936e-05
0.000125427
7.89342e-05
-6.06584e-05
-4.90101e-05
7.70282e-05
0.000137862
0.000150001
0.000111601
9.75289e-05
6.55598e-05
5.70929e-05
9.18827e-05
7.62307e-05
4.62675e-05
3.42733e-05
2.8702e-05
9.2776e-06
2.18154e-05
4.57304e-05
4.58823e-05
7.82758e-05
6.39088e-05
1.19097e-05
2.5908e-05
7.75409e-05
8.98988e-05
0.000118835
0.000134553
0.000119324
0.000128972
9.05584e-05
7.84589e-05
8.21859e-05
8.26421e-05
6.36106e-05
2.52235e-05
3.33154e-05
5.4367e-05
8.53272e-05
6.1572e-05
4.36955e-05
2.3709e-05
3.15638e-05
2.95616e-05
7.36348e-05
9.16674e-05
0.00010364
0.000106004
7.82173e-05
8.67716e-05
3.29574e-05
0.000274285
0.000440755
9.11146e-06
-0.000154695
-0.00029342
-0.000119734
0.000182949
0.000383565
0.000316788
0.000303558
0.000236587
5.50003e-05
8.82462e-06
7.3334e-05
9.07271e-05
8.45386e-05
7.06691e-05
9.94637e-05
6.26395e-05
3.03789e-05
0.000478887
0.000448044
5.11494e-06
-0.000159839
-0.000297955
-1.28162e-07
0.000286182
0.000383396
0.000290874
0.000303546
0.000237087
5.47594e-05
8.58158e-06
7.32727e-05
8.96812e-05
8.21888e-05
6.95981e-05
9.73451e-05
6.54996e-05
2.88596e-05
0.000243525
0.000468027
-8.67133e-05
-0.000239997
-0.000316599
-0.000139533
0.00027163
0.000384146
0.000289625
0.000304319
0.000163375
9.57419e-06
3.67319e-05
7.54045e-05
8.44203e-05
6.69796e-05
4.89958e-05
6.23568e-05
7.68183e-05
1.00659e-05
0.000167301
0.000469402
-0.000103263
-0.000232081
-0.000346867
-0.000218536
0.000187526
0.000296005
0.000278334
0.000299994
0.000233915
1.94365e-06
1.20804e-05
0.000100363
9.67249e-05
6.71115e-05
2.3804e-05
4.04421e-05
7.73614e-05
5.04856e-05
0.000121821
0.000280759
-2.99026e-05
-0.000157103
-0.000317633
-0.0001406
2.70698e-05
0.000206623
0.000220885
0.000262239
0.000193744
-1.86125e-05
1.21301e-05
0.000103939
0.00010212
7.02739e-05
2.9489e-05
8.11069e-05
0.000115955
9.80842e-05
0.000202577
0.000299051
-0.000122093
-6.02218e-05
-0.000191749
-0.00010867
7.23952e-05
0.000189769
0.000177979
0.000200735
0.000117064
-4.47226e-05
1.28143e-05
0.000116787
8.55136e-05
6.14307e-05
3.65216e-05
7.85102e-05
0.000126944
0.000128339
0.000127809
0.000190225
5.98722e-05
-6.9314e-05
-0.000139876
-0.000161351
5.95457e-05
0.000159022
0.00016106
0.000191317
8.25266e-05
-8.31809e-05
7.94152e-05
0.000125851
8.42968e-05
5.91111e-05
5.76732e-05
4.17296e-05
8.17469e-05
0.00011739
0.000118759
0.00014961
7.47806e-05
-9.1607e-05
-0.000192093
-0.000143114
4.33243e-05
0.000164599
0.000181713
0.000229663
3.40532e-05
-9.05038e-05
-4.08722e-05
5.56803e-05
0.000100422
8.25141e-05
7.39488e-05
5.62585e-05
6.79384e-05
8.93407e-05
9.51123e-05
0.000109826
-2.17489e-05
-8.94094e-05
-0.000111455
-5.69659e-05
1.78312e-05
0.000123324
0.000181731
0.000207034
0.00012352
-0.000113777
-5.23628e-05
2.15397e-05
0.000103355
0.000119042
0.000129231
8.91804e-05
5.9498e-05
7.93119e-05
7.53762e-05
8.17399e-05
5.34112e-05
-2.9934e-05
-4.2747e-05
-3.95289e-05
1.0769e-05
9.94874e-05
0.000147846
0.000166856
0.000128624
-3.98851e-05
-2.3435e-05
4.53074e-05
9.15083e-05
0.000106729
0.000131576
0.000100803
3.24252e-05
3.75253e-05
5.78826e-05
6.87813e-05
2.54579e-05
-6.55382e-06
-1.66114e-05
1.74268e-05
5.7007e-05
8.57413e-05
0.000110538
0.000117972
0.000102264
1.80188e-05
2.52198e-05
0.000103986
0.000125062
0.000110249
0.000111349
0.000109627
0.000106568
8.91255e-05
9.62769e-05
0.000104099
9.48853e-05
6.902e-05
3.4953e-05
3.83917e-05
6.70381e-05
8.20772e-05
7.56997e-05
5.55594e-05
4.82643e-05
2.98467e-05
1.36893e-05
8.45552e-05
0.000114207
0.000105455
0.000103867
8.01441e-05
0.000103974
0.000129219
7.93345e-05
6.31863e-06
3.20949e-05
0.000201932
-0.000146852
-0.00010171
0.00013275
0.000261893
0.000175609
0.000247912
0.000206197
2.46078e-05
-3.31073e-05
0.000135906
0.000174594
5.28327e-05
2.33523e-05
8.02647e-05
0.000112727
0.00012986
7.77851e-05
-2.68419e-05
2.68929e-05
0.000208983
-0.000146435
-4.34167e-06
0.000208838
0.000232106
0.000179908
0.000248885
0.000134282
-3.17468e-05
-3.55024e-05
0.000137408
0.000176352
5.08459e-05
2.0215e-05
9.82564e-05
0.000111934
0.000118714
4.22283e-05
-1.63461e-05
4.84237e-06
0.000237272
-0.000151793
-0.000116395
0.000195293
0.0002628
0.000177948
0.000252026
0.000206742
1.95141e-05
-4.22554e-05
0.000197401
0.000136468
4.64632e-05
2.62402e-05
8.72381e-05
0.000118951
0.000120086
4.23807e-05
-4.39413e-05
6.66338e-05
0.000310547
-0.00015874
-8.18096e-05
0.000108853
0.00023941
0.00016454
0.000279675
0.000124916
-4.5062e-05
2.11787e-05
0.00021591
0.000172639
3.65476e-05
1.5247e-05
0.000109544
0.000136402
8.03902e-05
-5.36444e-05
-6.15856e-05
3.42145e-05
0.000335094
-0.000118973
-0.000117126
-1.71109e-05
0.000147721
9.90026e-05
0.000251837
0.000186853
-6.59781e-05
-5.37566e-05
0.000220739
0.000176381
9.44283e-05
6.44275e-05
0.000156498
0.000153934
8.06947e-05
-8.62469e-06
-8.46545e-06
9.31938e-06
0.000342921
-4.43586e-05
-5.63124e-05
1.2315e-05
5.76134e-05
-4.4609e-05
5.83161e-05
6.38096e-05
-4.85197e-05
-0.000107247
0.000195384
0.000218472
7.62619e-05
7.71971e-05
0.000136177
0.000149654
7.49216e-05
3.43979e-05
5.87219e-05
4.72515e-05
0.00014691
-1.81378e-05
-0.000129548
-5.00094e-05
2.6822e-05
2.52572e-05
-2.96702e-05
-3.00906e-05
-0.000148609
-4.53975e-05
0.000259651
0.000228624
5.43947e-05
4.55701e-05
0.00013473
0.000104902
7.15847e-05
5.40862e-05
9.47228e-05
0.000119618
5.19266e-05
-3.82628e-05
-2.22348e-05
3.39391e-06
0.000136039
0.000215329
0.000133265
-8.72609e-05
-0.000115407
-8.87916e-05
0.000368476
0.00015641
1.55178e-05
4.5785e-05
0.000106237
7.34039e-05
2.40967e-05
3.38453e-05
9.07978e-05
3.35832e-05
-2.46741e-05
-6.18869e-05
-3.37479e-05
5.596e-05
0.000122085
0.000193677
0.000235615
0.000122537
-8.03449e-05
-5.71151e-05
0.000228388
0.000150679
5.50774e-05
5.77116e-05
8.67395e-05
5.55516e-05
4.46838e-05
6.59165e-05
6.11259e-05
4.4162e-05
-2.30806e-05
-5.20152e-05
-2.08408e-05
3.96416e-05
0.000110637
0.000122385
0.000150494
0.000110625
-1.72011e-05
-2.26531e-05
6.76159e-05
0.000124224
8.46646e-05
8.0961e-05
9.87668e-05
5.43974e-05
5.42132e-05
4.94148e-05
5.43559e-05
5.04713e-05
6.97808e-06
-2.5798e-05
-1.71114e-06
2.54888e-05
8.16181e-05
0.000106187
0.000101489
8.24364e-05
6.69822e-07
2.50494e-05
0.000134156
0.00015316
0.00010145
7.96884e-05
8.54626e-05
7.87307e-05
8.90467e-05
9.4223e-05
8.93125e-05
8.51494e-05
6.73963e-05
4.34092e-05
2.4542e-05
4.09433e-05
6.25501e-05
4.22238e-05
3.97672e-05
8.64842e-05
4.56781e-05
3.91931e-05
9.6755e-05
0.000108889
0.000100762
9.2949e-05
5.87308e-05
0.000121541
0.000146288
6.73225e-05
-3.36952e-05
8.617e-05
0.000123778
-0.000176104
-1.56484e-05
0.000145683
0.000100959
-9.15837e-06
0.000206081
0.000222943
7.30225e-05
-5.45314e-05
0.000112547
0.000249562
0.000103092
3.022e-06
5.61405e-05
0.000135368
0.000146214
6.57489e-05
-1.64646e-05
8.54418e-05
0.000127777
-0.000178727
7.3754e-05
0.000142579
9.76956e-05
4.82373e-05
0.00020611
0.00017208
7.25195e-05
-5.741e-05
0.000201345
0.000254482
0.000103224
-1.56101e-06
4.56094e-05
0.000137705
0.000133081
-2.73814e-07
-3.24002e-05
0.000162801
-2.26822e-06
-0.000174101
-2.08556e-05
0.000122516
1.63175e-05
3.37203e-05
0.000258007
0.000169123
6.94636e-05
-3.89731e-05
0.000208071
0.000227865
3.21263e-05
-2.20198e-05
6.34666e-05
0.000144829
0.000132504
-3.47849e-05
-8.92398e-05
0.000162932
0.000188953
-0.000243711
7.34098e-05
4.26137e-05
-2.45797e-06
-9.53097e-05
0.000248717
0.000154851
-3.44045e-06
-2.70743e-05
0.000206039
0.000246422
2.82882e-05
-4.08167e-05
7.39952e-05
0.000127499
0.000122613
1.86764e-05
-8.79654e-05
4.89526e-05
0.000210449
-0.000280764
6.66724e-05
3.74331e-06
-0.00015836
-0.000220638
0.000138052
0.000156732
7.2095e-05
-1.23588e-05
0.000205752
0.000258949
9.73805e-05
-3.07085e-06
8.79375e-05
0.000128824
0.000118828
4.80658e-05
-8.80025e-05
4.70464e-05
0.000186636
-0.000328407
6.2001e-05
4.0954e-06
-0.000186402
-0.00023135
0.000142104
0.000146609
5.6007e-05
-6.35454e-06
0.00021204
0.00021459
0.000100608
-2.04106e-05
0.00011863
0.000124216
9.15979e-05
6.20054e-05
-5.4389e-05
8.31733e-05
3.64544e-05
-0.000193539
-5.94047e-05
2.98827e-05
-4.23175e-05
-0.000187352
-2.13196e-05
3.83116e-05
3.6078e-05
-2.63889e-05
0.00017009
0.000212592
0.000107919
-3.24259e-05
0.000120684
0.00012833
4.8521e-05
5.94718e-05
9.03798e-06
2.35784e-05
5.28253e-05
-0.000130475
7.89283e-05
1.28753e-05
1.56355e-05
-1.044e-05
7.43084e-05
-5.25205e-05
-0.000142121
-0.000112571
0.000346331
0.000198521
5.76826e-05
-3.54275e-05
7.55551e-05
2.232e-05
-4.73523e-06
5.7342e-05
4.57831e-05
1.96347e-05
-3.33538e-05
-8.97189e-05
1.51199e-05
6.90691e-05
8.24189e-05
9.94151e-05
0.000141109
-7.8911e-06
-9.02295e-05
-4.95729e-05
0.000288439
0.000253938
6.10641e-07
1.69949e-05
5.86045e-05
4.00756e-05
4.70286e-05
0.00010898
6.68685e-05
1.04219e-05
-3.18525e-05
-5.67694e-05
1.08063e-06
5.26562e-05
8.35204e-05
7.58536e-05
0.000112669
8.36608e-05
-2.90767e-06
1.47776e-05
0.000173219
0.000180327
3.8608e-05
6.84608e-05
7.81264e-05
5.46961e-05
7.24182e-05
7.87556e-05
7.84547e-05
7.54259e-05
1.66952e-05
-2.93513e-05
-1.24246e-05
3.98951e-05
7.30102e-05
8.43557e-05
8.16562e-05
6.90078e-05
2.32211e-05
5.10022e-05
0.000161216
0.000170269
8.07387e-05
7.73531e-05
7.98947e-05
7.03805e-05
7.9433e-05
9.36219e-05
8.99297e-05
8.58719e-05
6.53912e-05
3.94009e-05
1.37929e-05
4.38395e-05
4.98717e-05
2.66158e-05
2.92583e-05
7.67287e-05