/*--------------------------------*- C++ -*----------------------------------*\
| =========                 |                                                 |
| \\      /  F ield         | OpenFOAM: The Open Source CFD Toolbox           |
|  \\    /   O peration     | Version:  5.0                                   |
|   \\  /    A nd           | Web:      www.OpenFOAM.org                      |
|    \\/     M anipulation  |                                                 |
\*---------------------------------------------------------------------------*/
FoamFile
{
    version     2.0;
    format      ascii;
    class       volVectorField;
    location    "0";
    object      U;
}
// * * * * * * * * * * * * * * * * * * * * * * * * * * * * * * * * * * * * * //

dimensions      [0 1 -1 0 0 0 0];

internalField   nonuniform List<vector> 
7200
(
(0.0318992 0.000784279 0.00663459)
(0.0326646 0.000444843 0.00918522)
(0.0316753 1.97729e-05 0.00831052)
(0.0293321 1.89977e-05 0.00578257)
(0.0250258 5.18225e-05 0.00351755)
(0.0202878 -0.000133144 0.00340522)
(0.0183428 -0.000420307 0.00383133)
(0.0193126 -0.000422193 0.0032833)
(0.0203868 -0.000145126 0.00138876)
(0.0220717 7.40238e-05 -0.000632963)
(0.0249704 0.000205429 -0.00258862)
(0.0281842 9.03465e-05 -0.00494736)
(0.0303771 -9.49472e-05 -0.00724642)
(0.0281505 -7.17938e-05 -0.00783957)
(0.0227642 -3.91787e-06 -0.00749111)
(0.0186506 -0.000228782 -0.00671233)
(0.0185714 -0.000237937 -0.0062801)
(0.021011 0.000146079 -0.00361441)
(0.0245636 0.00061957 0.000475758)
(0.0285475 0.000665368 0.00308374)
(0.0545512 0.00139026 0.00912968)
(0.0580944 0.000725699 0.0126161)
(0.0562772 -4.20549e-05 0.0112922)
(0.0502058 8.0114e-05 0.00729721)
(0.0431081 3.64309e-05 0.00486939)
(0.0381881 -0.000309812 0.0048665)
(0.0328857 -0.000921635 0.00555141)
(0.0322736 -0.000909875 0.00481905)
(0.0336951 -0.000160941 0.00140109)
(0.03733 0.000152748 -0.000996869)
(0.0406998 0.000238056 -0.00255004)
(0.0502314 -0.000379165 -0.00689766)
(0.0536571 -0.000473656 -0.00934367)
(0.0522802 -0.000196352 -0.0107853)
(0.0432344 -2.90829e-05 -0.00978088)
(0.0348975 -0.00049022 -0.00888432)
(0.0312042 -0.000413992 -0.00860625)
(0.0332812 0.000120524 -0.00577974)
(0.0392183 0.0011308 0.000158048)
(0.0492924 0.00132565 0.00543264)
(0.096405 0.00146458 0.00771626)
(0.105022 0.000908462 0.0133491)
(0.104903 -0.000236747 0.0151287)
(0.0982472 -0.000102991 0.0113846)
(0.091519 0.00011079 0.0083832)
(0.0825731 -0.000627368 0.0060729)
(0.0659561 -0.00205254 0.0079292)
(0.0596983 -0.0022231 0.00778802)
(0.055342 -0.000868936 0.00438975)
(0.0585068 -0.000229772 0.00289065)
(0.0650842 -0.000482084 0.002321)
(0.0742313 -0.00265878 0.00154455)
(0.0883486 -0.00334017 -0.00478339)
(0.0985321 -0.00105532 -0.0125699)
(0.0953378 -0.000132162 -0.0132704)
(0.0821289 -0.000607377 -0.010069)
(0.0676633 -0.00117002 -0.0116387)
(0.0547667 -0.000278686 -0.0103968)
(0.0625909 0.00116754 -0.00447718)
(0.0763345 0.00106385 -0.000347941)
(0.101117 -0.00438699 -0.0165087)
(0.121769 -0.00424314 -0.00458931)
(0.134008 -0.00131472 0.0104057)
(0.126635 -0.000617911 0.0104818)
(0.131294 -0.000271525 0.00994618)
(0.131679 -0.000696933 0.0115104)
(0.131468 -0.000531755 0.00621946)
(0.111318 -0.00155422 0.00983166)
(0.0874785 -0.00221575 0.00789968)
(0.0812118 -0.000995374 0.00657432)
(0.0819996 -0.000692659 0.00679519)
(0.0859704 -0.00733692 0.0117588)
(0.0872899 -0.0109571 0.0150904)
(0.0970877 -0.0110404 0.0126391)
(0.12101 -0.00569762 -0.00264442)
(0.130521 -0.00241407 -0.0101715)
(0.125124 -0.00157555 -0.00867347)
(0.118178 -6.02087e-05 -0.0103)
(0.100691 -0.000156015 -0.0146748)
(0.0907515 -0.00370398 -0.0200143)
(0.109181 -0.00735497 -0.0255264)
(0.111979 -0.00853233 -0.0202585)
(0.137671 -0.00475378 0.00169364)
(0.138534 -0.000994694 0.00816522)
(0.132816 -0.00157615 0.00479215)
(0.138988 -0.00039115 0.00685219)
(0.134811 -0.00150882 0.00607017)
(0.139491 -0.00237869 0.00531489)
(0.123962 -0.000276106 0.00945016)
(0.107671 -0.000892914 0.00911892)
(0.100019 -0.000728075 0.00901573)
(0.110999 -0.00703762 0.00775575)
(0.111156 -0.0111571 0.0117393)
(0.106208 -0.0138593 0.0187712)
(0.118868 -0.0104245 0.00840893)
(0.133365 -0.00392271 -0.00657812)
(0.114656 -0.00104063 -0.00533404)
(0.112119 -0.00170345 4.73617e-05)
(0.128401 0.000744151 -0.00584993)
(0.124303 -0.00313 -0.0151292)
(0.126664 -0.00545096 -0.0232419)
(0.123123 -0.00962242 -0.021373)
(0.129348 -0.0117391 -0.0130095)
(0.143376 -0.00534628 0.000597966)
(0.135719 -0.00198599 0.00180556)
(0.134172 -0.00207478 0.00133839)
(0.141083 -0.00265815 0.00443264)
(0.140327 -0.00738721 0.0044288)
(0.147749 -0.00121208 0.00795709)
(0.139293 0.00194599 0.00854057)
(0.120968 0.000440501 0.0111403)
(0.128135 -0.00854885 0.00019143)
(0.135214 -0.00944726 0.000606496)
(0.127991 -0.0105364 0.0129051)
(0.121222 -0.0108731 0.0133929)
(0.128719 -0.00430443 -0.00224848)
(0.116436 0.00141471 -0.00417736)
(0.112426 -0.00124475 0.00154809)
(0.118468 -0.000191775 0.00732129)
(0.140317 -0.00157035 -0.00568115)
(0.144983 -0.000507034 -0.015079)
(0.135759 -0.00688686 -0.0220208)
(0.140773 -0.0114827 -0.0144418)
(0.143731 -0.00748771 -0.00284657)
(0.142726 -0.0022117 0.0015302)
(0.136679 -0.00124495 0.000484189)
(0.141236 -0.00295359 0.00451609)
(0.144443 -0.00577653 0.00365705)
(0.139304 -0.00796474 0.00265866)
(0.133667 0.00279389 0.00907659)
(0.130839 0.00412342 0.00701034)
(0.131768 -0.00960373 -0.00780712)
(0.140901 -0.0114964 -0.00624137)
(0.145326 -0.00742425 0.00567554)
(0.127865 -0.00593268 0.0139177)
(0.128181 -0.00186474 0.00320171)
(0.128728 0.00228938 -0.00842332)
(0.129251 0.000603125 -0.0078879)
(0.128927 -0.00119608 0.00141808)
(0.136956 -0.00263926 0.00255286)
(0.150203 0.00173803 -0.00881093)
(0.150029 -0.00189475 -0.0174769)
(0.150416 -0.00541872 -0.0181067)
(0.150941 -0.00921708 -0.00961948)
(0.143254 -0.00020266 -0.00018154)
(0.141029 0.00187834 0.0020392)
(0.142536 -0.00238209 0.00465489)
(0.146157 -0.00403053 0.00585847)
(0.132503 -0.00311684 -0.000141814)
(0.128563 0.000418629 0.00110324)
(0.133789 0.0018438 -0.000734061)
(0.140708 -0.00500697 -0.0082014)
(0.147802 -0.0122515 -0.00100917)
(0.150518 -0.00822757 0.00510283)
(0.131652 6.98667e-05 0.0115021)
(0.128976 0.00378808 0.00318017)
(0.127833 0.00216371 -0.00178112)
(0.131919 -0.000566064 -0.00511597)
(0.136922 -0.000469003 -0.000117897)
(0.13704 -0.00249796 0.0023217)
(0.143495 0.00353337 -0.00164119)
(0.15592 0.00144005 -0.00943667)
(0.162534 0.000106816 -0.0120813)
(0.164687 -0.00481619 -0.0138586)
(0.152382 -0.00229785 -0.00862787)
(0.145182 0.00313529 0.000131057)
(0.143753 -0.000598852 0.00524246)
(0.13935 -0.00173255 0.00482146)
(0.137209 -0.000465604 -0.000838785)
(0.139711 -0.000468122 -0.00189198)
(0.141435 -0.00227065 0.00211243)
(0.140009 -0.000494526 0.000394206)
(0.145222 -0.00890221 0.00262245)
(0.148659 -0.00834805 0.0053917)
(0.137282 0.00510511 0.0088587)
(0.126549 0.00572556 0.00622368)
(0.124221 0.00322819 0.00562116)
(0.127572 -0.000192285 0.00418723)
(0.133938 -0.000894037 0.00231854)
(0.137859 0.00281621 0.005275)
(0.140283 0.00452967 0.00770917)
(0.147325 -0.000235319 0.00104489)
(0.160411 -0.00258043 -0.00823522)
(0.163799 -0.00033863 -0.00950945)
(0.157967 0.00256016 -0.00980598)
(0.152064 0.00429715 -0.00548484)
(0.148797 0.00176076 -0.00136028)
(0.144053 -0.00144359 0.00218101)
(0.146007 -0.00483832 0.00472446)
(0.154101 -0.00519529 0.00366278)
(0.148614 -0.00126144 0.00663601)
(0.142255 0.00408661 0.00318378)
(0.14159 0.00198314 -0.00216426)
(0.144126 -0.00485036 0.000164761)
(0.142466 0.00325534 0.00581241)
(0.138374 0.0102286 0.00508279)
(0.136892 0.0069695 -0.000790994)
(0.136453 0.00413283 -0.000329345)
(0.137505 0.00314909 0.00257949)
(0.138737 0.00477873 0.00606621)
(0.151053 -0.00143761 0.00955464)
(0.153313 -0.00330964 0.0104149)
(0.160509 -0.000665826 0.000710698)
(0.159661 0.00642218 -0.0059661)
(0.155593 0.00791971 -0.00803372)
(0.150105 0.00457158 -0.00911711)
(0.149985 -0.000608712 -0.00721165)
(0.155922 -0.00315315 -0.00392673)
(0.158079 -0.00525204 -0.000954294)
(0.156827 -0.00702819 0.00332233)
(0.153012 -0.00544661 0.00839514)
(0.15053 -0.00134985 0.00716324)
(0.149984 -0.00192149 0.000738995)
(0.148814 -0.00358269 0.0032029)
(0.149422 -0.000209808 0.00771868)
(0.152639 0.00700701 0.00596044)
(0.155141 0.00516843 -0.0058657)
(0.154136 0.0025808 -0.00891744)
(0.1493 0.00448457 -0.0038086)
(0.148335 0.00367596 0.00227382)
(0.155635 -0.00596638 0.00356176)
(0.15684 -0.00674199 0.00663959)
(0.161174 -0.00174387 0.00322702)
(0.162676 0.0046116 -0.00105156)
(0.161787 0.00717595 -0.00390514)
(0.160631 0.00798203 -0.00764909)
(0.159747 0.00455953 -0.00586492)
(0.159561 -0.00146025 0.000651982)
(0.159196 -0.00316858 -0.000919467)
(0.157312 -0.00221149 -0.00162732)
(0.156712 -0.00286348 0.00150795)
(0.157154 -0.00703339 0.00674512)
(0.158046 -0.00922291 0.0050888)
(0.157115 -0.00649817 0.00177492)
(0.156407 -8.04757e-05 0.00427947)
(0.155602 0.00498023 0.006764)
(0.155457 7.44664e-05 0.00340876)
(0.156871 -0.00134522 -0.00424983)
(0.15813 0.00103449 -0.0081796)
(0.157963 0.000892646 -0.00591662)
(0.0179405 0.000547106 -0.00337437)
(0.0200377 0.000904593 -0.000334208)
(0.0209653 0.000808211 0.00422921)
(0.0205959 0.00041147 0.00533)
(0.0198179 0.000170065 0.00462695)
(0.0189218 0.000222676 0.00516379)
(0.0194599 9.53068e-05 0.00603134)
(0.022091 -7.21857e-06 0.00514058)
(0.0250677 -9.345e-05 0.00237867)
(0.0279194 -0.000187677 -0.000920983)
(0.0291251 -9.72745e-05 -0.00332811)
(0.0290266 -0.000136651 -0.0030019)
(0.0298075 -0.000375409 7.22044e-05)
(0.0289834 -0.000470917 0.00117229)
(0.0251204 -0.000464185 -0.000498359)
(0.020474 -0.000580964 -0.00107918)
(0.0174046 -0.000835901 0.000182612)
(0.0158239 -0.000825166 0.000561957)
(0.0152846 -0.000415901 -0.000907907)
(0.0159666 -4.43151e-06 -0.0024306)
(0.0220373 0.000900218 -0.00722581)
(0.0246078 0.00161511 -0.00214244)
(0.0382019 0.00164312 0.00732371)
(0.0263274 0.00105793 0.00511547)
(0.02684 0.000832371 0.00504937)
(0.0338106 0.000509032 0.00830945)
(0.0337642 0.000243359 0.0095296)
(0.0382233 -0.000111123 0.00711467)
(0.0408987 -0.000295219 0.00465271)
(0.0513985 -0.00062046 0.00112827)
(0.0493338 -0.000356378 -0.00361197)
(0.0508963 -0.000537711 -0.00304531)
(0.0525543 -0.000852532 -0.000629962)
(0.0515657 -0.000993582 0.0013098)
(0.043166 -0.000889506 0.00395603)
(0.0404527 -0.00122346 -0.00141789)
(0.0253534 -0.001147 0.005401)
(0.022317 -0.000311857 0.00337529)
(0.0207494 0.000180459 -0.00119511)
(0.0254433 0.00013688 -0.0036901)
(0.0514858 0.00279096 -0.00552429)
(0.0652484 0.00325245 0.00236725)
(0.051336 0.00412082 0.00726134)
(0.0534194 0.00339681 0.0104766)
(0.0526613 0.00260332 0.00949187)
(0.0531986 0.00266326 0.010887)
(0.0562081 0.00237994 0.0126615)
(0.0689231 -6.41325e-05 0.0150275)
(0.0706263 -0.00027656 0.00898662)
(0.0820125 -0.00179849 0.00538739)
(0.0898888 -0.00194791 0.00236658)
(0.0911696 -0.00108058 0.00202277)
(0.0927869 -0.000790481 0.00238898)
(0.0989611 -0.00241968 0.00109347)
(0.0946846 -0.00166954 0.00408549)
(0.0939726 -0.00201761 -0.000446949)
(0.0565904 -0.00178692 0.00652497)
(0.0405091 1.95781e-05 0.00245157)
(0.0391597 0.000521672 -0.00155299)
(0.0372513 0.00141124 -0.00773706)
(0.0614623 0.00287635 -0.015659)
(0.0644587 0.00355005 -0.010088)
(0.076768 0.00492502 0.00275112)
(0.0870478 0.00536908 0.0113324)
(0.0907588 0.00545583 0.0130171)
(0.0943412 0.00481084 0.0136175)
(0.0971747 0.00465481 0.015418)
(0.107115 0.00499717 0.0217846)
(0.107593 0.00214182 0.021729)
(0.108192 -0.00216405 0.0134313)
(0.101065 -0.00148704 0.00951613)
(0.101522 -0.00195826 0.0116256)
(0.0990879 -0.00338424 0.0159877)
(0.118718 -0.0071759 0.0121832)
(0.129219 -0.00509521 0.00849369)
(0.134638 -0.00359472 0.00558488)
(0.115549 0.00073796 0.00793624)
(0.104635 -0.000892912 0.00172814)
(0.0667214 -8.0374e-05 0.00130206)
(0.0675387 0.00137094 -0.00443777)
(0.0844194 0.00302192 -0.01728)
(0.0807451 0.00281531 -0.020233)
(0.0825966 0.00348246 -0.00668608)
(0.115162 -0.000241165 0.00534144)
(0.118029 -0.0021489 0.00638114)
(0.124473 -0.000872616 0.00721989)
(0.125661 -0.00349771 0.00849803)
(0.135675 -0.0049059 0.0116908)
(0.145754 -0.0012084 0.0169132)
(0.137662 -0.00041407 0.0172757)
(0.119789 -5.51871e-05 0.011458)
(0.116011 -0.00179131 0.00672136)
(0.117395 -0.00256316 0.0129)
(0.127252 -0.00915313 0.0198357)
(0.133731 -0.0118703 0.00835857)
(0.139109 -0.00733636 0.000447163)
(0.134242 -0.00107578 0.00552379)
(0.128648 0.0015528 0.00999773)
(0.104302 -0.00114286 0.0097554)
(0.0825548 -0.00176692 -0.00393059)
(0.0967607 0.000285169 -0.0125725)
(0.0944346 0.00266037 -0.0204365)
(0.0865584 0.00306202 -0.0204503)
(0.0919264 0.00217149 -0.00821969)
(0.103026 0.00071078 0.0020477)
(0.107279 0.00119359 0.00308922)
(0.115401 -0.000232982 0.00496076)
(0.124072 -0.010079 0.00573959)
(0.138198 -0.00498007 0.0105993)
(0.136152 -0.000920234 0.0139757)
(0.132837 -0.00313172 0.0136072)
(0.131694 -0.00268232 0.00456149)
(0.133372 -0.00558673 0.00352108)
(0.143295 -0.0109816 0.0163152)
(0.139454 -0.0126082 0.00384556)
(0.13629 -0.0103301 -0.000967303)
(0.136741 -0.00484874 -0.00288503)
(0.131775 -0.0046696 0.00405825)
(0.144921 -0.000281657 0.010007)
(0.12917 -0.00411656 0.0113925)
(0.13082 -0.0058077 0.00468267)
(0.110272 0.00389289 -0.0169262)
(0.0993084 0.00392279 -0.0193214)
(0.0995108 0.00349058 -0.0124464)
(0.120348 0.000347556 0.000819372)
(0.103917 0.000854029 -0.00504355)
(0.116767 -0.0030921 -0.000775306)
(0.124631 -0.00834189 -0.00177278)
(0.12713 -0.00876883 0.00102014)
(0.126561 -0.000768993 0.00680209)
(0.135273 -0.000447692 0.00593992)
(0.13958 -0.00659301 -0.00229537)
(0.14038 -0.0137762 -0.0028287)
(0.137629 -0.00991542 0.00950703)
(0.143187 -0.0102096 0.0122044)
(0.133302 -0.00799401 -0.00434801)
(0.1332 -0.00463333 -0.0120706)
(0.128489 -0.0051572 -0.00818816)
(0.133065 -0.00598167 -0.00539725)
(0.150355 -0.000291606 -0.000271771)
(0.138277 0.00228733 -0.00809861)
(0.11188 0.00143005 -0.0141814)
(0.107143 0.00265098 -0.0183756)
(0.115626 0.0036246 -0.00995041)
(0.12084 0.00483064 -0.00389222)
(0.121152 0.00424498 -0.00270684)
(0.120882 0.00120305 -0.00216651)
(0.127127 -0.00485902 -0.00809824)
(0.130383 -0.00409526 -0.00194594)
(0.128624 -0.00272018 -0.00455304)
(0.139128 -0.00860548 -0.00258996)
(0.148049 -0.00955923 -0.0057424)
(0.14391 -0.0133651 -0.008328)
(0.139651 -0.014643 0.00306766)
(0.134559 0.000951048 0.00441497)
(0.136029 -5.7914e-05 -0.00166895)
(0.136182 0.000260975 -0.00638734)
(0.141123 2.83041e-05 -0.00777163)
(0.136326 -0.0043628 -0.00994971)
(0.146574 -0.0033048 -0.00905099)
(0.153356 0.00300173 -0.00441346)
(0.14973 0.00512389 -0.0101973)
(0.140989 0.00183557 -0.0124372)
(0.11475 0.00317076 -0.00967533)
(0.115113 0.01017 -0.00711737)
(0.133344 0.00917 0.000866366)
(0.132249 0.00634211 0.00606247)
(0.128449 0.00201292 0.00253694)
(0.128413 0.001712 -0.00894445)
(0.132414 -0.00569479 -0.0095935)
(0.13857 -0.00870856 -0.00720503)
(0.14591 -0.00845223 -0.00507002)
(0.146288 -0.00920628 -0.0076595)
(0.141499 -0.0111235 -0.00329436)
(0.141858 0.00269037 0.00708972)
(0.1401 0.00718776 0.0105163)
(0.134496 0.00505483 0.00649636)
(0.138038 0.000479796 -0.00289361)
(0.141491 0.00039916 -0.00672069)
(0.150409 -0.00364145 -0.00861443)
(0.157301 -0.00488563 0.00750089)
(0.157266 -0.00336567 0.00257144)
(0.162805 0.0012321 -0.00269243)
(0.149028 0.00722117 -0.00498619)
(0.144712 0.00397304 -0.00778956)
(0.131929 0.00675953 -0.00289259)
(0.133803 0.00571536 0.00606952)
(0.132967 0.00728135 0.0101232)
(0.135533 0.00499431 0.00232195)
(0.140222 -0.00116283 -0.00351786)
(0.146145 -0.00527561 0.00137969)
(0.154526 -0.00637084 0.00408282)
(0.153671 -0.00763062 -0.00206288)
(0.14868 -0.00568679 -0.00216387)
(0.149513 -0.00124175 0.00354467)
(0.152652 -0.000127595 0.00472058)
(0.143842 0.00229268 0.00418291)
(0.143083 -0.00225329 0.00103356)
(0.140143 0.0028591 -0.00162463)
(0.148771 0.00101508 0.00139829)
(0.15765 -0.00605043 0.0034164)
(0.164242 -0.00966975 0.00420046)
(0.165107 -0.0067715 0.00260669)
(0.156674 0.0081888 -0.00471637)
(0.153491 0.010889 -0.00617183)
(0.151447 0.00518575 -0.00782038)
(0.146282 0.00104566 -0.00766172)
(0.142692 0.00073959 -0.00311292)
(0.147309 -0.00109907 0.00129194)
(0.148812 -0.00185611 0.0067271)
(0.148537 0.000514532 0.00881478)
(0.153147 -0.00608512 0.00995611)
(0.1561 -0.00450427 0.00723673)
(0.156616 -0.00347595 0.00278298)
(0.15378 -0.00232439 0.00372879)
(0.15571 -0.000768002 0.00375226)
(0.157185 -0.0014064 0.000863267)
(0.158182 -0.00322925 -0.00243491)
(0.151935 0.000372731 0.00316994)
(0.148661 0.00213308 0.00399406)
(0.157259 -0.00110121 0.00162804)
(0.158251 -0.00409886 0.00489127)
(0.163733 -0.00392724 0.00127703)
(0.165833 0.0050746 -0.00012755)
(0.168236 0.00550934 -0.00152395)
(0.168925 0.00492205 -0.00572676)
(0.160567 0.00574947 -0.00397222)
(0.157359 0.00473485 -0.00193507)
(0.153174 -0.000103474 -0.00246491)
(0.154338 -0.00320317 -0.00174178)
(0.155558 -0.000271533 0.000447332)
(0.156737 0.000909243 0.000583018)
(0.155876 0.000319299 -0.00117368)
(0.155792 0.000369948 -0.000538235)
(0.156715 0.00238964 0.00138969)
(0.15818 0.00460902 0.00114229)
(0.161042 0.00202444 0.00177418)
(0.16097 -0.00272583 -0.00374036)
(0.159972 -0.00242671 -0.00528226)
(0.157204 0.00256357 -0.006009)
(0.0185248 -0.000821631 -0.00335515)
(0.0194394 -0.00115291 -0.00239649)
(0.0187914 -0.000648533 -0.00225483)
(0.0175688 -0.000142739 -0.00214137)
(0.0177634 2.34548e-05 -0.00211742)
(0.0186793 7.70471e-05 -0.00184177)
(0.0194132 5.55052e-05 -0.00134258)
(0.0206264 2.93035e-06 -0.00124248)
(0.0224144 -8.49284e-05 -0.000794128)
(0.0249526 -0.000134427 0.0011503)
(0.0257246 -2.94841e-05 0.00349833)
(0.0222642 2.03486e-05 0.00497879)
(0.0174344 3.63275e-05 0.00566709)
(0.0148766 0.000110737 0.00649881)
(0.0147235 0.000279288 0.00698043)
(0.0157045 0.00053284 0.00587238)
(0.0167661 0.000713825 0.00238988)
(0.0171158 0.000609599 -0.0017635)
(0.0174154 0.000207242 -0.00415461)
(0.0180183 -0.000201946 -0.0045888)
(0.0337097 -0.00176744 -0.00424501)
(0.0317509 -0.00191988 -0.00256397)
(0.0303069 -0.00117454 -0.00267745)
(0.0287557 -4.08564e-05 -0.00282935)
(0.0293596 9.74618e-05 -0.00288243)
(0.0310099 0.000173259 -0.00257893)
(0.0334925 3.46612e-05 -0.00194541)
(0.0349341 -6.66927e-05 -0.00189657)
(0.0398029 -0.000456198 -0.000644189)
(0.0427376 -0.000512111 0.00115527)
(0.0461127 -0.000266546 0.00462642)
(0.0396464 0.000124269 0.00768552)
(0.030495 0.00024003 0.00870177)
(0.0259287 0.000488278 0.00998969)
(0.0248826 0.000922166 0.00970419)
(0.0257986 0.00117184 0.00810118)
(0.0296689 0.00136011 0.000735573)
(0.031174 0.00104892 -0.00258588)
(0.0330393 0.000204156 -0.00586699)
(0.0342915 -0.000654239 -0.00630989)
(0.066054 -0.00410754 -0.00533153)
(0.0584404 -0.00442358 -0.00292752)
(0.0504449 -0.00219435 -0.00206695)
(0.0484924 0.000218889 -0.00266726)
(0.0499091 0.000484963 -0.00298468)
(0.0531894 0.000577419 -0.00289652)
(0.0565031 0.000313729 -0.00255951)
(0.0610533 -0.000160618 -0.00268959)
(0.0684209 -0.00135193 -0.00240901)
(0.0723258 -0.00188849 -0.00115567)
(0.0803829 -0.00186273 0.00233205)
(0.0854582 -0.000660373 0.00713913)
(0.0786529 0.000595892 0.00987181)
(0.0636891 0.00101193 0.0114498)
(0.0541677 0.00218424 0.0143014)
(0.0474201 0.00296546 0.0139815)
(0.054603 0.00230523 0.00576798)
(0.0610295 0.00139853 0.00156374)
(0.0729379 -0.000778524 -0.00632151)
(0.0751616 -0.0016727 -0.00857942)
(0.130725 -0.00564489 -0.00249564)
(0.108575 -0.00465989 -0.00422517)
(0.0752855 -0.00260419 -0.00150351)
(0.0673797 0.00206189 0.000579011)
(0.0714793 0.0026043 0.000600478)
(0.0761443 0.00245837 0.00143136)
(0.0800138 0.0020485 0.00171167)
(0.0826183 0.00179254 0.00189515)
(0.0921151 0.000323211 0.00422026)
(0.0997316 -0.00151845 0.00345923)
(0.102745 -0.00240646 0.00279985)
(0.108193 -0.00112236 0.00586506)
(0.113508 -1.05571e-05 0.00838731)
(0.115852 0.000500578 0.00993712)
(0.110073 0.00198228 0.0129663)
(0.106648 0.00566641 0.018102)
(0.0959701 0.00430971 0.0225702)
(0.096246 -0.00134155 0.0188394)
(0.104827 -0.0054148 0.0152802)
(0.116557 -0.00672672 0.0116071)
(0.141836 -0.0117986 0.0104296)
(0.12508 -0.00225259 -0.00200886)
(0.09688 -0.00067687 -0.00251385)
(0.0770951 0.00307599 -0.000118555)
(0.0804048 0.00566651 0.00333248)
(0.0857736 0.00502933 0.00512294)
(0.0881485 0.00474461 0.005895)
(0.0950858 0.00534911 0.00902373)
(0.0998501 0.00518277 0.0119485)
(0.108691 0.00384985 0.0144115)
(0.113211 0.000192677 0.00724565)
(0.114384 0.00151737 0.00614895)
(0.115304 0.00175125 0.00660041)
(0.126333 -0.000799455 0.0094376)
(0.129691 0.000793085 0.0110256)
(0.127372 0.00285344 0.0119984)
(0.130748 0.00373469 0.01715)
(0.127133 -0.0020348 0.0189222)
(0.134922 -0.00704133 0.0152741)
(0.132121 -0.0105348 0.0202625)
(0.143532 -0.0145572 0.0130577)
(0.14617 -0.00279745 2.29661e-05)
(0.122328 0.00165287 -0.00196505)
(0.0893496 0.00496405 -0.0027733)
(0.0861899 0.00894075 6.17438e-05)
(0.0933475 0.00761445 0.00348981)
(0.0970721 0.00692447 0.00493238)
(0.101998 0.00779638 0.00679405)
(0.114165 0.00820085 0.0119048)
(0.119904 0.0083028 0.0155342)
(0.124623 0.00696541 0.0162495)
(0.121185 0.00356344 0.00810437)
(0.12312 0.00451626 0.00671438)
(0.129372 0.000530804 0.010398)
(0.130219 0.000909316 0.00917369)
(0.127925 0.00121719 0.00190384)
(0.127473 1.40554e-05 0.0084096)
(0.127261 -0.00235993 0.00853216)
(0.136923 -0.00764922 0.00323563)
(0.141404 -0.00998248 0.0143487)
(0.148977 -0.0141475 0.00449007)
(0.157115 -0.0103853 0.00330419)
(0.142775 0.00126724 -0.00152969)
(0.109207 0.00547928 -0.00301979)
(0.0943579 0.0113137 -0.00626818)
(0.0947832 0.00952338 -0.00624191)
(0.0981511 0.00566402 -0.00482087)
(0.104773 0.0066595 -0.00149686)
(0.115652 0.0101538 0.00357739)
(0.12198 0.010046 0.00996564)
(0.125035 0.0087324 0.00957646)
(0.125076 0.00514586 0.00422561)
(0.127799 0.00172104 0.00191531)
(0.134132 0.00346517 0.0110743)
(0.127689 0.00491261 0.000205301)
(0.125209 -0.00128622 -0.0133507)
(0.126707 -0.00163492 -0.00825443)
(0.131803 -0.00280993 -0.00448411)
(0.13937 -0.00924153 -0.00638942)
(0.140613 -0.00686679 -0.000832126)
(0.152659 -0.0142129 -0.00146238)
(0.158362 -0.00840664 0.000934726)
(0.15223 0.000757738 -0.00127214)
(0.118691 0.00825741 -0.00248041)
(0.105236 0.0109478 -0.00676217)
(0.109825 0.00729352 -0.0116011)
(0.118191 0.00131005 -0.0113941)
(0.108535 0.00479143 -0.00727594)
(0.109837 0.00930872 -0.00566682)
(0.116374 0.00977032 -0.0025188)
(0.119199 0.00926386 -0.00237685)
(0.120701 -2.65291e-05 -0.00381278)
(0.120866 -0.000143499 0.000405486)
(0.119673 0.00927741 0.0014113)
(0.121181 0.00952527 -0.00903642)
(0.124559 0.00230353 -0.0146779)
(0.128988 -0.00420243 -0.0180301)
(0.133395 -0.0065063 -0.0166227)
(0.14029 -0.00870789 -0.015261)
(0.141818 -0.00827127 -0.0107781)
(0.159418 -0.014574 -0.00348889)
(0.159165 -0.0117156 0.00291506)
(0.15277 -0.0023669 0.00347299)
(0.143573 0.00542137 5.18288e-05)
(0.128313 0.00245564 -0.000172633)
(0.125088 -0.00114026 -0.00139585)
(0.13133 -0.000131934 -0.00156333)
(0.121468 0.00461152 -0.00561981)
(0.116594 0.00474778 -0.00957772)
(0.118664 0.00415278 -0.0106108)
(0.124968 0.00385739 -0.00497869)
(0.124184 0.00166818 -0.00130472)
(0.114689 0.00171869 -0.00315698)
(0.118599 0.00948569 -0.00332827)
(0.12614 0.0113557 0.00103655)
(0.13379 0.00602095 0.0075111)
(0.133556 -0.000952587 -0.00256906)
(0.136547 -0.00320294 -0.0144707)
(0.145459 -0.0081975 -0.0180264)
(0.150247 -0.0102742 -0.0149132)
(0.160629 -0.011559 0.00237736)
(0.161794 -0.00711215 0.00787854)
(0.160679 -0.00527886 0.0063029)
(0.166256 0.00142476 0.00335566)
(0.161495 0.00432653 0.00269005)
(0.140119 0.00470366 -0.000222572)
(0.129615 0.00255389 0.00264457)
(0.131719 0.00274228 0.00787991)
(0.139794 0.000651031 0.000917119)
(0.136783 -0.00245125 -0.00848451)
(0.133152 -0.00229982 -0.00648558)
(0.134213 -0.00189912 0.000290622)
(0.135023 -0.000962098 0.000131388)
(0.136335 0.00181106 0.000121591)
(0.141424 0.00605593 0.0087416)
(0.141693 0.00517982 0.0129027)
(0.143506 0.00202317 0.00761796)
(0.147604 -0.00227204 0.000710737)
(0.150474 -0.00505427 -0.00321103)
(0.153654 -0.00907949 -0.00767396)
(0.160311 -0.0109034 -0.00322685)
(0.162089 -0.00807661 0.00352501)
(0.163974 -0.00501018 0.00243816)
(0.164193 0.000317665 -0.000810076)
(0.152081 0.0081645 -0.000188998)
(0.144123 0.00824513 -0.00380158)
(0.145027 0.00369116 -0.00438795)
(0.142655 0.0017579 0.000388856)
(0.141517 0.00419005 0.00293988)
(0.143794 0.00387261 0.00271802)
(0.144842 0.00145556 0.00192369)
(0.143019 0.00178125 0.000732522)
(0.14401 0.00306355 -0.00101897)
(0.145707 0.00169062 -0.000496343)
(0.143833 0.00293036 0.00247286)
(0.147518 0.00360717 0.000504328)
(0.15226 0.00111557 -0.0030813)
(0.155208 -0.00176314 -0.00294011)
(0.153943 -0.00184665 0.0025707)
(0.156731 -0.00612942 0.000302792)
(0.155784 -0.00684319 -0.00374691)
(0.157121 -0.00663294 -0.00205502)
(0.157927 -0.00328462 -0.000568877)
(0.16164 0.00193734 0.00126756)
(0.167217 0.00417704 -0.000291814)
(0.167574 0.00419471 -0.00514856)
(0.165936 0.00519569 -0.00493663)
(0.163051 0.00458658 -0.00136278)
(0.155426 0.00210966 -0.000633899)
(0.150257 0.00219895 -0.000293875)
(0.15294 0.00567983 0.000723545)
(0.154433 0.00618955 -0.000549679)
(0.153384 0.00397455 -0.00186462)
(0.152222 0.00321991 -0.0013106)
(0.151705 0.00431162 0.000509537)
(0.154469 0.00544713 -0.000193737)
(0.157912 0.0018074 -0.00273399)
(0.156562 -0.00113497 -0.00382415)
(0.155574 -0.00199974 -0.00403238)
(0.155147 -0.00320158 -0.00397976)
(0.0160047 -0.000879544 0.00308158)
(0.0162316 -0.000620359 0.0039291)
(0.0156648 -0.000256731 0.00175401)
(0.0149794 -5.45596e-05 -0.000742527)
(0.015724 -3.8103e-05 -0.00199479)
(0.0168135 -1.28775e-05 -0.00152645)
(0.0166948 -3.8541e-05 -0.000536121)
(0.0161758 -4.1078e-05 -0.000286094)
(0.0157721 -1.67095e-05 1.16918e-05)
(0.0157466 0.00010334 0.00142081)
(0.0151321 0.000270242 0.00306437)
(0.0139127 0.000308636 0.0040055)
(0.013361 0.000270351 0.00395253)
(0.0138868 0.000298408 0.0032977)
(0.015042 0.000511424 0.00190017)
(0.0160658 0.000672501 -0.000200816)
(0.0169511 0.000433575 -0.00232871)
(0.0172924 -3.08271e-05 -0.00319975)
(0.017015 -0.000484754 -0.00217171)
(0.0164372 -0.000737845 0.000185475)
(0.0275566 -0.00168886 0.00461354)
(0.0268363 -0.00120883 0.00475602)
(0.0255183 -0.000498594 0.00185631)
(0.024853 -0.000121876 -0.00132668)
(0.0261995 -0.000116655 -0.00277106)
(0.0280532 -8.07506e-05 -0.00209079)
(0.0284778 -0.000125117 -0.00082474)
(0.0283088 -0.000122879 -0.000383557)
(0.0280834 -1.88263e-05 0.000822757)
(0.0281008 0.000180134 0.00235266)
(0.026834 0.000721205 0.00594183)
(0.0252168 0.000783084 0.00663522)
(0.0226119 0.000732049 0.00587561)
(0.0229104 0.000817762 0.00501199)
(0.0247177 0.00119537 0.00282783)
(0.0286688 0.00116544 -0.00113336)
(0.03089 0.000662191 -0.00268827)
(0.0336227 -0.00074483 -0.00363324)
(0.0330133 -0.00122038 -0.00268622)
(0.0306009 -0.00162153 0.000269282)
(0.0546822 -0.00397246 0.00409717)
(0.0478104 -0.00256908 0.00608127)
(0.0443073 -0.00101836 0.0026556)
(0.0436231 -0.000187898 -0.00293539)
(0.0467529 -0.000345637 -0.00390918)
(0.0489102 -0.000388343 -0.00319052)
(0.0517624 -0.000665684 -0.00141399)
(0.0528907 -0.000659028 -0.00122577)
(0.0548046 -0.000563724 -0.00026663)
(0.0554919 5.199e-05 0.00286559)
(0.0555232 0.00121044 0.00755609)
(0.0518948 0.0022132 0.0108896)
(0.044203 0.00225634 0.0106071)
(0.0416342 0.0025688 0.00875261)
(0.0450751 0.00325179 0.00562056)
(0.0496062 0.00307659 0.003306)
(0.0643634 -1.88052e-05 6.53032e-05)
(0.0711437 -0.00150476 -0.000462914)
(0.0751868 -0.00306566 -0.0018076)
(0.0676841 -0.00373536 -0.00076064)
(0.101273 -0.00495724 0.00595328)
(0.0765468 -0.0027981 0.00737627)
(0.0703538 -0.00122281 0.00466768)
(0.0656704 0.000458158 -0.00304159)
(0.0669766 0.000290154 -0.00483148)
(0.072306 -0.000134833 -0.00240505)
(0.0736421 -0.000797551 -0.00121308)
(0.0772009 -0.0018434 -0.00183137)
(0.0803388 -0.0020577 -0.00205976)
(0.087406 -0.00193013 -0.00179817)
(0.0928675 -0.000872653 -0.000263241)
(0.0923904 0.00172433 0.00610419)
(0.0896843 0.00390954 0.012609)
(0.0811523 0.00485186 0.0153278)
(0.0768178 0.0056548 0.0156977)
(0.0802945 0.00558866 0.0177041)
(0.0931903 0.000786432 0.0182907)
(0.103079 -0.00240327 0.0188339)
(0.114405 -0.00515023 0.0188327)
(0.127099 -0.00391832 0.0073967)
(0.133418 -0.00177313 0.00780879)
(0.0999504 -0.00020819 0.00793914)
(0.0882101 0.000886201 0.0049399)
(0.078892 0.00314075 -0.00385832)
(0.0783313 0.00242674 -0.00548501)
(0.0806012 0.0021216 -0.00332639)
(0.0830197 0.001265 0.000901891)
(0.0848205 0.000400065 0.000278159)
(0.0904466 0.000310323 0.000628991)
(0.0948978 -6.65489e-05 0.000454994)
(0.107231 -0.000452111 -3.76273e-05)
(0.112476 0.00151176 0.00103104)
(0.109804 0.00202883 0.00473861)
(0.109573 0.00380913 0.0123169)
(0.107534 0.00554716 0.014645)
(0.108476 0.00599922 0.0166771)
(0.118017 0.00144717 0.0188839)
(0.127027 -0.00172584 0.0162077)
(0.129754 -0.00599689 0.0174241)
(0.135594 -0.00547644 0.0171852)
(0.147412 -0.000360324 0.00543412)
(0.119847 0.00335204 0.00860718)
(0.10494 0.00373707 0.0080751)
(0.0918281 0.00707519 -0.00371004)
(0.0869336 0.0063823 -0.00766268)
(0.0874189 0.00538546 -0.00498996)
(0.0895392 0.00391406 0.00172485)
(0.0913165 0.00500424 0.0003926)
(0.0959876 0.00592237 -0.000652734)
(0.10542 0.00622068 0.00260997)
(0.112679 0.00328626 0.0025871)
(0.12129 0.00270764 0.0028554)
(0.125128 0.00304841 0.00341105)
(0.122105 0.00206053 0.00727259)
(0.119989 0.00571498 0.00628558)
(0.120557 0.0061568 0.00412969)
(0.123653 0.00230338 0.00836488)
(0.131405 -0.00194605 0.00266563)
(0.132244 -0.00361061 0.00244688)
(0.133144 -0.00655715 0.00826267)
(0.142788 -0.00542013 -0.000655365)
(0.140164 0.00427913 0.00487076)
(0.113544 0.00319429 0.0082214)
(0.102314 0.00810373 5.15105e-05)
(0.0969351 0.00935685 -0.010272)
(0.0957864 0.00597138 -0.00609121)
(0.0940689 0.00357771 0.000822027)
(0.0956881 0.00825125 -0.000127958)
(0.0996174 0.0113091 -0.00337823)
(0.105385 0.012411 -0.000886281)
(0.115238 0.0121251 0.00425772)