/*--------------------------------*- C++ -*----------------------------------*\
| =========                 |                                                 |
| \\      /  F ield         | OpenFOAM: The Open Source CFD Toolbox           |
|  \\    /   O peration     | Version:  5.0                                   |
|   \\  /    A nd           | Web:      www.OpenFOAM.org                      |
|    \\/     M anipulation  |                                                 |
\*---------------------------------------------------------------------------*/
FoamFile
{
    version     2.0;
    format      ascii;
    class       volScalarField;
    location    "0";
    object      nut;
}
// * * * * * * * * * * * * * * * * * * * * * * * * * * * * * * * * * * * * * //

dimensions      [0 2 -1 0 0 0 0];

internalField   nonuniform List<scalar> 
7200
(
5.24823e-09
2.1533e-09
1.11359e-09
1.39537e-09
4.45198e-09
1.09776e-08
6.82444e-09
1.02942e-09
1.23593e-09
3.27248e-09
1.38686e-09
2.19293e-09
6.55315e-09
7.68964e-09
7.94719e-09
3.41798e-09
1.91417e-08
6.42488e-08
4.44901e-08
1.79842e-08
1.95038e-08
8.18826e-09
4.0185e-09
4.74328e-09
1.85105e-08
3.08545e-08
2.03818e-08
3.74998e-09
1.00665e-08
2.19173e-08
1.88031e-08
1.86129e-08
2.37705e-08
2.11567e-08
2.37723e-08
2.00566e-08
1.50641e-07
3.11319e-07
2.22352e-07
4.82804e-08
1.87875e-07
7.83232e-08
2.82621e-08
1.13171e-08
2.8328e-08
9.80629e-08
4.93217e-08
2.32582e-08
4.07653e-08
4.65375e-07
2.53156e-06
2.61669e-06
3.8e-07
9.36792e-08
8.72269e-08
8.71929e-08
1.10037e-07
3.13394e-06
5.87296e-06
6.99115e-06
2.48123e-05
1.73202e-06
2.07234e-06
7.83249e-07
5.20506e-07
9.06544e-07
6.26531e-07
8.67996e-08
3.93563e-08
4.43473e-08
3.04349e-07
6.2832e-06
1.33316e-05
1.09092e-05
3.64531e-06
1.52661e-06
1.73717e-06
2.45303e-07
2.32481e-06
1.68901e-05
3.1954e-05
1.96986e-05
1.26134e-06
1.02771e-06
5.06256e-06
1.14423e-06
2.94146e-06
1.75607e-06
2.71406e-07
3.27628e-07
2.39838e-07
1.3847e-06
1.00746e-05
2.88351e-05
1.37715e-05
2.51213e-06
3.72643e-06
6.63425e-06
1.54921e-06
3.07466e-06
2.54749e-05
2.01802e-05
8.45014e-06
1.00423e-06
4.75196e-06
2.38759e-06
5.17901e-06
4.52063e-06
1.76845e-06
1.93365e-06
4.91986e-06
3.10787e-06
4.38275e-06
2.50555e-05
2.71184e-05
1.85002e-06
1.35569e-06
3.96163e-06
1.65779e-05
1.06258e-06
6.15536e-06
1.5564e-05
1.06164e-05
2.31878e-06
1.68389e-06
2.62313e-06
1.46803e-06
8.00268e-06
8.41794e-06
1.17637e-05
1.11435e-05
7.35838e-06
6.35592e-06
1.31573e-05
2.77198e-05
1.24903e-05
1.84187e-06
2.6568e-06
1.25631e-05
5.12096e-06
4.81132e-06
3.93069e-06
3.26061e-06
5.15974e-06
3.3051e-06
2.85799e-06
2.75372e-06
4.00783e-06
2.9385e-06
1.08323e-05
1.88663e-05
9.14867e-06
5.28847e-06
7.61667e-06
2.50734e-05
2.25638e-05
1.06913e-05
5.85782e-06
5.32416e-06
4.16339e-06
2.8388e-06
2.97424e-06
3.66491e-06
6.05262e-06
5.26705e-06
3.38673e-06
2.46438e-06
1.10289e-06
6.7154e-06
1.60522e-05
7.24741e-06
5.89962e-06
7.23399e-06
3.15575e-06
5.89926e-06
6.70533e-06
4.568e-06
5.09126e-06
3.73463e-06
8.84111e-06
2.80668e-05
7.1045e-06
2.43803e-06
2.73916e-06
7.16931e-06
4.52136e-06
7.43171e-06
8.78736e-06
7.20221e-06
4.45933e-06
1.49493e-05
5.556e-06
1.42157e-05
2.15415e-06
7.16324e-06
7.73956e-06
2.22848e-06
1.72263e-06
2.46525e-06
2.1897e-05
2.94099e-05
2.42265e-05
4.00988e-06
1.02566e-05
1.86586e-05
9.08224e-06
5.9944e-06
1.40204e-05
7.70791e-06
1.39504e-06
2.70328e-06
8.93059e-06
9.1229e-06
4.01141e-06
1.5722e-05
2.82815e-05
4.31626e-06
3.46643e-06
9.04178e-06
8.67357e-06
1.14043e-05
3.59832e-05
2.65312e-05
1.40741e-05
3.8258e-06
1.942e-05
1.17533e-05
1.17158e-05
5.61065e-06
6.0184e-06
7.00162e-06
9.51047e-06
1.37797e-05
6.70496e-06
6.52864e-06
3.71726e-05
1.82872e-05
5.57264e-06
1.83386e-05
7.21645e-06
8.57935e-08
3.35968e-08
1.08907e-08
5.10019e-09
5.16884e-09
7.47064e-09
5.68277e-09
2.62543e-09
9.78948e-10
1.00651e-09
1.85444e-09
3.47747e-09
1.09593e-08
2.19203e-08
5.35525e-08
1.1977e-07
1.43623e-07
1.76428e-08
1.52576e-08
9.53594e-08
2.36099e-07
1.42741e-07
2.20598e-08
6.71277e-08
9.04613e-08
3.44867e-08
2.93725e-08
8.96407e-09
5.53939e-09
5.15107e-09
4.35183e-09
1.32748e-08
2.22519e-08
4.58208e-08
1.44067e-07
2.16596e-07
1.13377e-07
2.48191e-08
1.41343e-08
2.91662e-07
3.39132e-06
1.12059e-06
2.66226e-07
2.26198e-07
2.78909e-07
4.74093e-07
5.80835e-07
1.9771e-07
8.10102e-07
5.22375e-07
2.17748e-07
8.06986e-08
2.00273e-08
7.98384e-08
2.26522e-07
2.30389e-07
3.85153e-07
7.8569e-08
2.2153e-08
8.43669e-07
6.59968e-06
1.10869e-05
6.7314e-06
3.57737e-06
1.35885e-06
3.97804e-07
3.67061e-07
2.57344e-07
5.4232e-07
3.74655e-07
2.11907e-06
4.34004e-06
4.65096e-06
2.35477e-06
1.86884e-06
1.65952e-06
1.10032e-06
1.21169e-06
5.34567e-07
2.72611e-07
5.515e-06
1.398e-05
2.61796e-05
7.11653e-06
5.63554e-06
4.97993e-06
8.00563e-06
4.86127e-06
4.96441e-07
4.45629e-07
1.37577e-07
2.00148e-06
3.11896e-06
5.82864e-06
2.2194e-06
4.17138e-07
2.00213e-06
1.57359e-06
1.55043e-06
2.3067e-06
1.11667e-05
1.87449e-05
9.45947e-06
1.99044e-05
3.12495e-05
3.2686e-05
3.33146e-05
6.60161e-06
3.8109e-06
2.94821e-06
2.98966e-06
4.06812e-06
8.95906e-06
7.08152e-06
6.88596e-06
2.70303e-06
2.24375e-06
3.31243e-06
2.38328e-06
2.16093e-06
2.66351e-06
5.96273e-06
5.91908e-06
5.31616e-06
7.71084e-06
1.80319e-05
9.49071e-06
1.44319e-05
3.09535e-06
4.38456e-06
6.21992e-06
1.7704e-05
1.94322e-05
6.12861e-06
4.1723e-06
2.47625e-06
4.24144e-06
2.37781e-06
4.68237e-06
4.1948e-06
2.51699e-06
6.38565e-06
1.31019e-05
6.25303e-06
5.50338e-06
5.80021e-06
4.08771e-06
7.21444e-06
2.35428e-06
9.07428e-06
4.59681e-06
1.80876e-05
3.87492e-05
7.89873e-06
1.38031e-06
7.16394e-06
9.65516e-06
6.33773e-06
4.32441e-06
9.1484e-06
3.06566e-06
2.51311e-06
3.48438e-06
1.62888e-05
1.88496e-05
4.69831e-06
3.82098e-06
4.31606e-06
1.1925e-05
3.67192e-06
2.31891e-06
2.16041e-06
2.66757e-05
1.05404e-05
2.52208e-06
9.83383e-06
1.04945e-05
5.0849e-06
6.08646e-06
1.03865e-05
4.39735e-06
3.0329e-06
5.70785e-06
4.13355e-06
2.14631e-05
1.47509e-05
9.82335e-06
1.6693e-05
4.12493e-06
3.20318e-06
1.34242e-05
6.19404e-06
5.17988e-06
2.90631e-06
2.01223e-06
5.80892e-06
1.67838e-05
2.69729e-05
7.42174e-06
1.29616e-05
7.76449e-06
1.42892e-05
9.14514e-06
5.79467e-06
6.50158e-06
8.07255e-06
1.19995e-05
3.21867e-05
1.62332e-05
7.87878e-06
6.83404e-06
5.60251e-06
2.38913e-06
5.74631e-06
4.34604e-06
4.31582e-06
4.3775e-06
6.32352e-06
4.74456e-06
4.36023e-06
3.78387e-06
2.82909e-06
7.00443e-06
2.40017e-06
1.39689e-06
4.05811e-06
6.84308e-06
6.28037e-06
1.24896e-05
2.59882e-05
2.33146e-05
1.5655e-05
4.39452e-06
3.08779e-06
4.40905e-06
7.72023e-06
9.30849e-06
3.09233e-06
5.53899e-06
7.89608e-06
1.31667e-07
4.24169e-08
7.71284e-09
5.46646e-09
3.37691e-09
2.61077e-09
2.03474e-09
9.86403e-10
1.14191e-09
3.70501e-09
1.08718e-08
1.53761e-08
8.63781e-09
3.8049e-08
1.33549e-07
8.79735e-08
2.10018e-08
6.04043e-09
1.81505e-08
7.31859e-08
2.62834e-07
6.12763e-08
4.37868e-08
2.74245e-08
2.20488e-08
1.70261e-08
8.309e-09
4.87728e-09
3.70761e-09
6.75327e-09
2.02423e-08
3.52178e-08
3.79789e-08
1.65934e-07
3.84537e-07
2.72175e-07
2.20097e-08
1.44829e-08
4.32242e-08
1.52794e-07
5.72549e-07
3.26756e-07
3.20483e-07
3.77272e-07
3.26509e-07
3.14422e-07
2.91533e-07
1.71816e-07
1.26986e-08
1.33099e-08
5.37861e-08
7.77231e-08
7.37117e-08
1.28297e-07
6.73899e-07
1.13959e-06
5.59753e-07
3.31202e-07
1.6083e-07
3.11992e-07
1.76693e-06
1.03909e-06
1.51888e-06
3.82443e-06
3.82457e-06
3.71216e-06
2.55978e-06
1.36156e-06
5.49889e-07
7.64827e-07
1.64603e-06
6.00537e-06
1.00797e-06
1.20056e-06
9.52436e-08
3.7656e-07
2.97565e-07
1.44682e-06
5.16293e-06
1.74956e-06
3.87081e-06
1.42012e-06
1.64996e-06
4.52224e-06
4.52179e-06
3.49191e-06
2.6108e-06
1.58568e-06
1.24188e-06
1.05739e-06
3.71619e-06
3.97966e-06
9.76836e-06
6.01363e-06
5.67536e-06
2.40802e-06
1.35989e-06
7.50248e-07
2.81276e-06
7.58019e-06
3.97885e-06
4.71845e-06
2.12204e-06
8.03634e-06
7.75727e-06
5.87021e-06
6.80047e-06
1.10128e-05
1.48934e-05
5.98351e-06
2.87809e-06
7.2209e-06
2.90201e-06
2.08903e-05
1.96276e-05
5.71794e-06
2.93511e-06
5.19158e-06
1.47701e-05
7.82748e-06
4.39821e-06
5.60792e-06
5.12683e-06
2.58002e-06
3.91881e-06
5.34984e-06
1.72125e-05
3.21529e-05
4.7125e-05
3.36085e-05
7.25529e-06
6.11889e-06
1.09293e-05
3.66511e-06
1.51701e-05
2.20004e-05
9.75853e-06
6.68821e-06
1.79072e-05
1.11728e-05
6.27617e-06
5.19848e-06
5.84489e-06
5.93686e-06
3.1001e-06
2.87887e-06
3.82744e-06
2.44196e-05
5.09814e-05
2.78682e-05
9.14184e-06
2.80144e-05
2.1621e-05
2.03083e-05
7.31143e-06
1.0468e-05
2.47743e-05
1.43623e-05
1.97939e-05
8.08113e-06
2.10746e-05
7.61153e-06
3.98912e-06
1.64393e-05
2.97023e-05
2.68204e-05
5.35652e-06
3.47401e-06
8.41067e-06
8.47267e-06
4.76076e-06
4.16018e-06
3.96019e-06
1.82457e-05
1.89364e-05
1.7314e-06
5.63349e-06
4.88655e-06
1.09531e-05
1.80516e-05
7.55502e-06
1.10312e-05
8.52219e-06
4.65227e-06
4.41123e-06
3.54009e-06
1.17905e-05
2.20752e-05
5.70963e-06
3.04959e-06
3.08786e-06
5.40381e-06
6.26051e-06
9.2883e-06
6.1028e-06
9.37269e-06
6.29384e-06
2.60116e-05
1.85889e-05
3.5459e-06
2.85988e-05
1.25988e-05
3.9472e-06
3.22371e-06
4.70143e-06
5.91632e-06
2.94943e-06
6.34425e-06
4.06243e-06
3.91022e-06
4.586e-06
4.43772e-06
4.88959e-06
8.22161e-06
7.64907e-06
3.16118e-06
1.31508e-05
6.19178e-06
9.08776e-06
8.9092e-06
1.1693e-05
3.93125e-06
2.17599e-06
4.23264e-06
1.90993e-06
3.67793e-06
3.21499e-06
3.05276e-06
2.15086e-06
4.96463e-06
4.94638e-06
1.98696e-06
2.49772e-06
2.0791e-06
3.59302e-06
1.09638e-05
1.69028e-06
4.91433e-06
5.78199e-06
5.08237e-06
4.75282e-08
1.06046e-08
9.82288e-10
1.56669e-10
1.23059e-10
5.4976e-10
1.36538e-09
1.4313e-09
2.01857e-09
3.79471e-09
5.8867e-09
1.15087e-08
4.10735e-08
1.11756e-07
1.12054e-07
2.42797e-08
1.00896e-08
4.52147e-08
1.02496e-07
1.2928e-07
6.18947e-08
2.11165e-08
2.36896e-09
6.45765e-10
4.38671e-10
1.70183e-09
3.99265e-09
3.93818e-09
6.11832e-09
8.00177e-09
1.52005e-08
2.62098e-08
1.82975e-07
3.42768e-07
3.77694e-07
2.65914e-08
2.45142e-08
1.44549e-07
2.26336e-07
2.82966e-07
3.27907e-07
5.78457e-08
1.93027e-08
2.1102e-08
7.04731e-09
9.20294e-09
1.17591e-08
9.99076e-09
1.33137e-08
2.30902e-08
1.87631e-08
3.95315e-08
2.34629e-07
1.34017e-06
2.78643e-06
2.03056e-06
7.53871e-08
1.31332e-07
4.3162e-07
8.43075e-07
6.66627e-07
1.84113e-07
4.65243e-07
1.81882e-06
1.39477e-06
8.01415e-07
9.11856e-07
5.96738e-07
4.90797e-07
2.21208e-07
2.08292e-07
1.7581e-06
6.34628e-08
3.23571e-07
1.11024e-06
3.24753e-06
1.58658e-06
2.07805e-06
2.75229e-06
1.49814e-06
2.39237e-06
1.01537e-06
1.2824e-06
3.64836e-06
3.47175e-06
1.91966e-06
2.03568e-06
3.90241e-06
3.40546e-06
3.21554e-06
6.59706e-07
5.25797e-07
2.77512e-06
1.40447e-06
1.28096e-06
2.73952e-06
6.11002e-06
1.07442e-05
5.02092e-06
4.72963e-06
2.91245e-06
5.88973e-06
6.19869e-06
3.27828e-06
5.74826e-06
4.56153e-06
3.68809e-06
6.57902e-06
5.40629e-06
2.52311e-06
1.14606e-06
1.46722e-06
9.88021e-07
1.17896e-05
9.07075e-06
7.27312e-06
4.60029e-06
1.96659e-05
2.41478e-05
1.24217e-05
2.23595e-06
4.33994e-06
1.77095e-05
3.9113e-06
3.33996e-06
1.77361e-06
6.58121e-06
9.34385e-06
1.22652e-05
1.09695e-05
4.23989e-06
2.62925e-06
3.96184e-06
5.54177e-06
1.19639e-05
2.17813e-05
1.72588e-05
3.18345e-05
3.38056e-05
2.66801e-05
5.97117e-06
4.26967e-06
1.53273e-05
2.11356e-05
5.16579e-06
4.47398e-06
1.21653e-05
1.55307e-05
1.19902e-05
1.00346e-05
5.96907e-06
1.51159e-05
8.73302e-06
1.86176e-05
1.09274e-05
1.09212e-05
2.79852e-05
2.85409e-05
2.72555e-05
9.55398e-06
1.19098e-05
4.52677e-06
6.02711e-06
1.69276e-05
1.93339e-05
2.33281e-05
1.02611e-05
1.55792e-05
3.78897e-06
1.18363e-05
5.54206e-06
8.49531e-06
1.36645e-05
3.20091e-05
1.1742e-05
2.61472e-06
3.73437e-06
2.65123e-06
1.13896e-05
2.29336e-05
5.57119e-06
2.11492e-05
6.45425e-06
1.1535e-05
1.86637e-05
6.20162e-06
7.29442e-06
4.84876e-06
2.56315e-06
2.96818e-06
7.95149e-06
9.19506e-06
6.77715e-06
1.36917e-05
6.76731e-06
1.78431e-05
3.69703e-06
6.22782e-06
7.34299e-06
7.35535e-06
1.21639e-05
7.95491e-06
5.16005e-06
7.03263e-06
4.21639e-06
9.30359e-06
8.0869e-06
5.33508e-06
3.4849e-06
5.592e-06
1.81729e-05
4.00738e-06
3.56085e-06
8.5471e-06
1.04891e-05
3.02799e-06
1.16297e-05
6.98255e-06
6.11535e-06
1.94226e-05
7.35654e-06
5.43519e-06
3.34912e-06
3.5247e-06
2.02144e-06
4.11191e-06
3.07404e-06
2.06197e-06
2.37553e-06
2.40173e-06
3.32206e-06
4.19769e-06
5.34478e-06
3.25931e-06
9.60065e-06
1.53572e-05
2.23574e-06
1.25498e-05
7.74801e-06
5.24852e-06
1.04881e-08
2.96713e-09
2.56123e-09
9.66101e-09
3.85835e-09
1.99976e-10
7.37894e-10
1.78873e-09
2.12209e-09
1.19e-08
2.57144e-08
1.49841e-08
2.6653e-09
5.40361e-10
1.01508e-09
6.03927e-10
4.57523e-09
7.80596e-09
4.34216e-09
6.21457e-09
7.98329e-08
7.6137e-09
6.7178e-09
2.25577e-08
8.4993e-09
7.09028e-10
1.35696e-08
4.23322e-09
1.77911e-08
5.08002e-08
1.76307e-08
1.06906e-08
1.59566e-09
1.03507e-09
2.20494e-09
2.33836e-09
3.54927e-09
2.51869e-08
1.6285e-08
2.88035e-08
2.6642e-07
4.38052e-07
1.98954e-08
6.36755e-08
6.63996e-09
1.56307e-08
2.77895e-08
1.33641e-07
6.76197e-08
8.88532e-08
1.22988e-07
2.72056e-07
1.3906e-07
7.55268e-09
1.00766e-08
7.51892e-08
2.69966e-08
4.45194e-08
2.29052e-07
3.60909e-07
4.16358e-06
4.22201e-06
2.18471e-06
1.33254e-06
5.5503e-08
8.03297e-08
2.83507e-08
2.45638e-07
2.82873e-07
1.31999e-06
4.55752e-07
3.9077e-07
1.06267e-06
1.28231e-06
6.91979e-07
3.91676e-07
1.11655e-06
1.24387e-07
3.93396e-07
3.22653e-06
1.48724e-06
6.59113e-07
1.4133e-06
3.66565e-06
2.9278e-07
2.91115e-07
6.84373e-07
9.82049e-07
1.45216e-07
1.70341e-06
2.49526e-06
4.18965e-07
1.85072e-07
1.13192e-06
3.8205e-06
1.69387e-06
3.47734e-07
2.40126e-06
5.53674e-07
1.00098e-06
1.52712e-05
6.77745e-06
2.04558e-06
2.67168e-06
2.43238e-06
2.54796e-06
5.75646e-06
2.70278e-06
8.121e-07
1.71966e-06
4.82012e-06
4.8286e-06
1.27933e-06
1.43344e-06
2.35583e-06
1.06215e-06
3.24882e-06
7.75712e-06
7.03328e-06
1.01728e-05
2.95713e-06
1.46092e-05
4.7376e-06
2.71675e-06
1.99698e-06
6.93163e-06
5.24367e-06
5.62608e-06
3.45201e-06
4.76788e-06
7.49598e-06
3.66884e-06
6.40472e-06
2.01589e-06
3.74748e-06
2.46415e-06
1.96604e-06
1.45467e-05
4.43695e-06
6.12576e-06
5.41326e-06
1.01577e-05
1.57294e-05
5.13355e-06
3.23478e-06
1.20034e-05
9.66067e-06
2.04175e-05
2.25491e-05
4.01106e-06
3.02444e-06
3.89976e-06
5.83846e-06
5.3275e-06
8.34658e-06
2.62412e-05
4.00057e-06
1.12219e-05
1.46135e-05
4.27187e-06
1.58793e-05
9.55646e-06
1.21895e-05
2.44155e-05
5.83567e-06
1.21188e-05
1.80977e-05
1.46914e-05
2.36126e-05
2.92639e-05
5.86629e-06
3.6929e-06
2.38693e-06
8.37866e-06
6.19036e-06
1.71805e-05
2.39941e-05
4.91811e-06
1.51178e-05
2.8515e-05
1.22874e-05
2.66502e-05
1.34255e-05
1.36811e-05
6.22984e-06
5.61871e-06
3.01499e-05
2.09692e-05
4.27897e-05
1.48522e-05
1.44475e-05
6.19427e-06
1.54481e-05
6.23502e-06
5.28944e-06
7.94436e-06
4.23586e-06
2.74394e-06
4.17034e-06
1.13746e-05
6.59771e-06
4.94425e-06
6.87107e-06
5.16526e-06
3.64336e-06
1.19879e-05
1.67518e-05
7.38431e-06
3.98477e-06
1.10638e-05
5.66712e-05
7.56179e-05
7.24595e-05
2.47017e-05
1.64146e-05
6.97937e-06
7.2886e-06
2.56201e-06
6.48833e-06
2.41397e-05
6.50714e-06
8.64681e-06
3.49091e-06
5.22303e-06
4.87828e-06
7.39735e-06
1.45372e-05
7.16399e-06
5.13123e-06
5.53247e-06
6.86337e-06
1.25437e-05
1.8458e-05
3.9048e-05
3.46479e-05
5.75696e-06
8.94977e-06
1.00623e-05
6.7063e-06
5.37378e-06
5.46311e-09
1.05292e-09
2.02499e-09
8.29705e-10
3.03868e-09
2.34571e-08
1.80702e-08
1.27255e-08
1.57704e-08
1.67922e-08
1.26571e-08
1.08369e-08
9.26074e-09
2.19838e-09
8.67283e-10
1.8466e-09
3.45794e-09
1.87511e-08
3.50289e-08
2.67762e-08
1.73331e-08
4.40287e-09
1.0893e-08
5.90173e-09
1.08218e-08
3.76819e-08
4.7845e-08
4.05731e-08
5.93008e-08
7.1556e-08
5.16331e-08
3.10572e-08
2.0232e-08
4.60115e-09
3.14061e-09
5.70406e-09
1.26169e-08
7.66483e-08
9.33409e-08
4.89703e-08
7.48283e-08
2.30506e-08
6.11632e-08
8.26835e-08
1.3319e-08
2.77819e-08
1.27588e-07
2.38002e-07
2.27899e-07
4.91329e-07
3.91182e-07
1.40752e-07
6.99527e-08
5.14516e-08
1.81146e-08
1.26378e-08
7.67158e-08
3.87725e-07
3.66192e-07
1.49849e-07
2.6581e-07
8.80324e-08
1.09161e-07
1.62107e-06
1.4605e-06
1.06366e-06
2.1663e-06
3.03212e-06
1.15388e-06
2.80393e-06
2.77852e-06
1.94225e-06
6.94538e-07
1.54498e-07
1.9984e-07
1.10112e-07
2.19845e-07
2.41246e-07
2.69592e-06
1.86545e-06
2.4248e-06
4.08344e-07
6.45694e-07
1.66392e-06
1.85096e-06
1.74255e-06
3.68571e-06
1.84127e-05
8.86134e-06
3.58523e-06
6.43338e-06
7.90868e-06
4.09798e-06
7.79664e-07
8.42181e-07
9.06295e-07
1.3703e-06
1.84737e-06
1.91292e-06
3.43057e-06
2.92675e-06
2.89965e-06
8.48009e-07
9.43981e-07
1.25649e-06
3.76462e-06
9.4532e-06
1.22458e-05
5.25486e-06
2.14862e-06
3.4572e-06
2.6367e-05
3.04202e-05
2.48482e-05
7.35315e-06
3.30458e-06
4.06216e-06
8.47773e-06
9.06635e-06
1.2537e-06
5.39237e-06
2.45719e-06
7.06525e-07
2.1029e-06
7.3939e-06
1.50175e-05
6.78575e-06
1.37126e-05
1.16051e-05
4.30379e-06
4.29206e-06
1.31498e-05
3.13666e-05
3.13586e-05
1.12869e-05
4.5866e-06
3.56591e-06
5.1223e-06
1.15674e-05
1.24796e-05
1.54612e-05
5.67197e-06
4.46095e-06
3.20069e-06
8.83522e-06
1.16279e-05
2.02588e-05
2.1392e-05
5.7408e-06
4.9764e-06
4.94109e-06
1.41643e-06
4.96771e-06
3.27501e-06
2.7152e-06
5.01267e-06
2.47241e-06
1.6553e-06
2.2876e-06
6.74199e-06
1.44795e-05
1.60341e-05
7.29673e-06
1.41871e-05
1.70616e-05
4.96943e-06
6.40377e-06
6.54743e-06
1.26324e-05
4.43949e-06
7.36846e-06
2.40742e-06
9.37728e-06
4.71241e-06
2.26549e-06
2.95222e-06
2.23263e-06
3.58894e-06
2.72327e-06
9.95217e-06
9.2267e-06
1.80325e-05
1.03934e-05
2.11118e-05
1.0043e-05
7.1308e-06
6.09234e-06
1.3139e-05
7.32373e-06
5.83782e-06
5.76875e-06
6.24046e-06
2.13409e-05
7.31604e-06
2.61379e-06
1.45397e-06
3.45595e-06
5.14337e-06
6.22678e-06
4.44614e-06
1.71252e-05
7.82793e-06
1.67868e-05
2.60605e-05
2.38127e-05
5.72739e-06
6.02898e-06
7.12382e-06
1.21084e-05
1.22401e-05
1.99042e-05
7.55139e-06
8.37449e-06
6.40487e-06
3.15314e-06
6.41093e-06
1.0637e-05
5.67179e-06
5.96107e-06
2.08725e-05
3.12722e-05
4.59462e-05
1.71007e-05
8.99751e-06
8.2999e-06
7.80014e-06
2.51488e-05
1.00463e-05
1.62402e-05
8.02327e-06
1.42629e-05
1.9133e-05
6.9613e-06
1.02077e-05
1.9988e-05
1.18006e-05
8.70825e-06
4.08871e-06
1.71162e-05
1.87228e-05
1.86324e-08
3.00352e-09
3.40713e-08
4.31926e-09
1.09448e-09
1.36268e-08
5.07393e-08
2.69129e-08
2.04029e-09
1.05152e-09
2.07466e-09
2.54209e-09
5.36376e-09
4.65533e-09
1.3774e-09
1.9274e-09
5.17188e-09
1.24306e-08
1.94673e-08
3.16251e-08
4.93365e-08
2.33426e-08
6.82976e-08
2.86704e-08
8.02769e-09
2.89249e-08
9.84514e-08
4.98864e-08
6.46453e-09
6.7832e-09
1.49434e-08
1.49361e-08
2.28401e-08
1.51943e-08
3.43563e-09
8.30004e-09
1.91393e-08
4.16196e-08
3.73938e-08
5.31264e-08
1.20765e-07
5.29479e-08
2.1142e-07
2.76546e-07
8.3831e-08
7.69189e-08
5.90981e-07
2.18285e-07
4.98516e-08
7.86723e-08
1.44038e-07
3.0613e-07
3.30173e-07
1.89601e-07
5.8595e-08
2.8374e-09
6.17495e-08
6.87888e-07
2.33813e-07
7.64548e-08
1.27047e-07
3.12446e-07
2.41076e-07
7.8839e-06
7.19134e-06
5.08686e-06
1.11239e-05
3.6893e-06
4.72439e-07
1.24101e-07
8.10971e-07
2.50891e-06
1.80623e-06
9.48317e-07
5.27453e-07
1.7225e-07
1.81006e-07
1.59378e-06
6.99638e-06
6.07747e-06
8.98877e-06
1.50012e-06
7.18569e-07
4.43571e-06
7.98052e-06
7.42939e-06
6.67113e-06
2.12843e-05
4.33086e-06
1.65688e-06
2.00211e-06
4.13143e-06
4.80295e-06
2.6843e-06
4.98703e-06
1.77251e-06
1.04798e-06
3.46953e-06
9.92995e-06
1.16524e-05
1.48306e-05
1.26605e-05
4.87546e-06
4.30842e-06
1.47881e-05
6.7519e-06
2.33446e-05
1.55284e-05
2.0723e-05
1.6636e-05
3.79511e-06
8.78608e-06
2.26005e-05
1.63495e-05
2.75625e-05
2.19725e-05
4.63882e-06
3.90988e-06
2.42745e-06
9.938e-06
4.13355e-06
1.39301e-05
8.66724e-07
2.81933e-06
3.98513e-05
1.97341e-05
3.02337e-05
8.37951e-06
4.83994e-06
1.71685e-05
7.92683e-06
5.70291e-06
3.17558e-05
3.30314e-05
1.8864e-05
1.52544e-05
1.13287e-05
4.43116e-06
4.13342e-06
4.61863e-06
1.16271e-05
7.10302e-06
9.84037e-06
1.68203e-06
2.06379e-05
4.30323e-05
4.73784e-05
4.00958e-05
7.3838e-06
7.32598e-06
4.73223e-06
5.04188e-06
1.12172e-05
1.03851e-05
7.38096e-06
1.21164e-05
7.57088e-06
3.65148e-06
2.05796e-06
3.79186e-06
3.28665e-05
9.86392e-06
5.12018e-06
9.33621e-06
1.34408e-05
1.27607e-05
1.85327e-05
5.48655e-06
6.43192e-06
3.94005e-06
1.5036e-05
4.31563e-06
5.02007e-06
5.08015e-06
3.13314e-06
5.68156e-06
3.77963e-06
4.07829e-06
6.26728e-06
8.42239e-06
1.32344e-05
1.47427e-05
4.96652e-06
1.50519e-05
1.01774e-05
1.43115e-05
6.43679e-06
1.2019e-05
8.73773e-06
1.2944e-05
1.23663e-05
7.39678e-06
1.00386e-05
6.66703e-06
1.40177e-06
1.20107e-06
3.90866e-06
3.48363e-06
1.03673e-05
1.0541e-05
1.05166e-05
7.8217e-06
7.8171e-06
1.16421e-05
1.45409e-05
5.1692e-06
4.13283e-06
8.15031e-06
1.04197e-05
2.452e-05
2.29622e-05
3.83766e-06
3.72779e-06
8.03531e-06
2.20652e-06
3.07221e-06
8.91637e-06
8.54238e-06
5.23185e-06
5.65493e-06
1.32781e-05
2.03433e-05
1.25034e-05
3.98113e-06
3.79223e-06
9.72581e-06
2.30918e-05
7.11632e-06
1.01884e-05
4.39107e-06
1.33776e-05
2.17336e-05
1.646e-05
5.21162e-06
1.13053e-05
2.69972e-06
3.07467e-06
3.33542e-06
7.23261e-06
1.05574e-05
5.81588e-09
3.28229e-08
2.54134e-07
3.76134e-07
9.8165e-08
8.33256e-08
8.98664e-09
2.21581e-08
5.60955e-08
4.03059e-08
9.49229e-09
6.29451e-09
7.51184e-09
1.25522e-09
1.39424e-09
3.27434e-09
1.23902e-09
1.39386e-08
1.7857e-08
7.38588e-09
2.03876e-08
9.53503e-08
4.57917e-07
3.76373e-07
2.46918e-07
2.59194e-07
3.1312e-08
4.44138e-08
1.28058e-07
5.50535e-08
1.83141e-08
1.89271e-08
2.11777e-08
4.91424e-09
5.96236e-09
2.39557e-08
5.84938e-09
3.38578e-08
5.56395e-08
2.60567e-08
1.65635e-07
3.27446e-06
1.71454e-06
2.10956e-06
5.59162e-06
8.06174e-06
3.78522e-06
1.93815e-07
1.07632e-06
1.95223e-07
6.13849e-08
6.96115e-08
8.401e-08
2.30044e-08
6.3107e-08
5.37825e-07
6.9207e-07
1.88777e-07
2.54371e-07
3.94475e-07
2.07189e-06
4.29364e-06
7.75426e-06
4.37648e-06
9.53762e-06
2.68644e-05
2.89611e-05
1.6083e-05
7.70026e-06
2.51718e-06
3.40122e-06
9.15009e-07
1.31905e-06
9.4158e-07
3.9615e-07
6.17807e-07
2.04758e-06
3.34471e-06
5.32656e-06
2.52961e-06
2.9453e-06
4.23295e-06
9.69831e-06
6.352e-06
1.16193e-06
2.51209e-06
2.17575e-05
3.70351e-05
5.74494e-06
1.28799e-05
1.35743e-05
5.0571e-06
2.45199e-06
1.69714e-06
4.63184e-06
4.87058e-06
2.30483e-06
3.26473e-06
3.11009e-06
4.08387e-06
3.75094e-06
6.9501e-06
3.82944e-06
5.44027e-06
2.5519e-06
3.43253e-06
4.95558e-06
5.25503e-06
5.31324e-06
7.10702e-06
1.41759e-05
1.5692e-05
5.93681e-06
3.33217e-06
5.03927e-06
7.06637e-06
5.67189e-06
9.82262e-06
6.64665e-06
2.7798e-06
4.03952e-06
3.12889e-06
4.1149e-06
2.8474e-06
6.31053e-06
1.28398e-05
1.03855e-05
1.26259e-05
1.18011e-05
5.72688e-06
1.32981e-05
1.35661e-05
1.21087e-05
6.67214e-06
4.7103e-06
3.12474e-06
4.66344e-06
6.35648e-06
1.09712e-05
1.34056e-05
5.20871e-06
4.24372e-06
1.08043e-05
1.49969e-05
2.4559e-06
9.13416e-06
4.58393e-05
8.22044e-06
7.23025e-06
6.79146e-06
3.33185e-06
4.70202e-06
8.10585e-06
5.79757e-06
2.75148e-05
9.8946e-06
3.70834e-06
1.38565e-06
2.67275e-06
1.82181e-05
3.02797e-06
7.00089e-06
5.46157e-06
8.23139e-06
1.44855e-05
1.85324e-05
2.1511e-05
1.77214e-05
3.29941e-06
4.29419e-06
2.91494e-06
3.0184e-06
2.74597e-06
1.69082e-05
7.25883e-06
3.23286e-05
1.68159e-05
4.49651e-06
6.12529e-06
8.30528e-06
4.77354e-06
3.97395e-06
7.18063e-06
3.80074e-06
9.90013e-06
9.04826e-06
7.16718e-06
1.50514e-05
1.51611e-05
3.4486e-06
2.8463e-06
4.90755e-06
9.05182e-06
2.57056e-05
1.74489e-05
2.50128e-05
2.34894e-05
5.85839e-06
5.60524e-06
1.0119e-05
3.53119e-05
1.4623e-05
6.78356e-06
1.36961e-05
1.95719e-05
1.70838e-05
7.20015e-06
6.26751e-06
3.60135e-06
2.05268e-06
5.50013e-06
5.13148e-06
8.01953e-06
9.11093e-06
6.13417e-06
3.57923e-06
4.02345e-06
7.80433e-06
1.12034e-05
9.93474e-06
8.74459e-06
8.49333e-06
7.47847e-06
4.08575e-06
9.22271e-06
5.53476e-06
3.16447e-06
3.72242e-06
5.64345e-06
7.74923e-06
7.46152e-06
1.61182e-05
2.07918e-05
1.78305e-05
2.37188e-05
7.4828e-06
3.49774e-06
6.1541e-06
3.75199e-06
5.83431e-06
6.3699e-09
2.03951e-08
1.62297e-09
7.19036e-08
1.42721e-07
1.00271e-07
8.8363e-08
2.16731e-07
1.22109e-07
1.49968e-08
2.06122e-09
8.35963e-09
2.11853e-08
3.18136e-09
5.08384e-09
8.78546e-09
5.99989e-09
1.55958e-08
1.73641e-08
3.48969e-09
9.06391e-09
3.79316e-08
2.2491e-08
1.59908e-07
4.23991e-07
2.4741e-07
2.87829e-07
6.83057e-07
2.54829e-07
2.10256e-08
8.7693e-09
4.18735e-08
6.33426e-08
6.21184e-09
3.04176e-08
3.60275e-08
1.93209e-08
5.29356e-08
3.43822e-08
9.89794e-09
2.01177e-08
3.30579e-07
3.78122e-06
2.643e-07
5.19407e-07
1.56851e-06
1.16429e-06
2.82082e-06
2.91971e-06
7.55454e-07
3.11777e-07
1.54324e-07
2.45275e-07
2.09882e-07
8.55233e-08
1.1925e-07
2.50892e-07
6.71237e-07
1.31031e-07
2.03196e-08
2.02077e-06
2.28427e-07
9.63775e-07
6.65455e-06
4.12372e-06
4.26724e-06
9.09474e-06
8.64921e-06
6.9369e-06
5.52057e-06
5.34098e-06
6.21816e-06
7.93931e-06
6.97967e-06
4.22737e-06
6.83716e-07
1.0996e-06
4.71477e-06
3.32051e-06
3.79687e-07
1.99404e-06
5.74171e-07
1.01534e-06
4.88713e-06
3.15178e-06
6.42976e-06
8.15939e-06
1.91477e-05
8.57322e-06
1.15432e-05
1.286e-05
7.64544e-06
1.81633e-06
5.41038e-06
6.14643e-06
4.64569e-06
4.84774e-06
9.84124e-06
6.22668e-06
3.96902e-06
3.72585e-06
3.99753e-06
4.11291e-06
1.65528e-06
3.13644e-06
6.86153e-06
4.66871e-06
6.28813e-06
7.79989e-06
1.12571e-05
1.65971e-05
8.57585e-06
1.01547e-05
8.3315e-06
4.23686e-06
7.35568e-06
2.27393e-06
4.60297e-06
3.53572e-06
3.87302e-06
6.44296e-06
6.07265e-06
6.41339e-06
3.69165e-06
9.6205e-06
1.8973e-05
6.5381e-06
1.65809e-05
1.3635e-05
1.30794e-05
8.4115e-06
1.40831e-05
1.57798e-05
1.34121e-05
2.20489e-06
5.13648e-06
4.0986e-06
1.18293e-05
3.48317e-06
3.99696e-06
7.56761e-06
9.17878e-06
7.85585e-06
7.22354e-06
7.22334e-06
3.79639e-06
5.92629e-06
5.91395e-06
1.2404e-05
7.48671e-06
6.27717e-06
7.47938e-06
2.02528e-05
8.0949e-06
7.56667e-06
6.46567e-06
5.22103e-06
1.16529e-05
5.42505e-06
5.71665e-06
1.17104e-05
2.01e-05
1.8104e-05
5.8849e-06
5.95274e-06
9.62308e-06
1.46492e-05
1.6516e-05
4.86581e-06
6.87847e-06
5.69401e-06
3.86813e-06
4.50008e-06
1.34128e-05
1.25078e-05
5.02579e-06
6.14107e-06
1.54067e-05
1.04542e-05
5.91838e-06
7.92329e-06
1.31543e-05
2.0518e-05
1.37171e-05
7.50136e-06
8.84571e-06
3.05516e-06
2.30525e-05
8.05739e-06
3.0182e-06
7.81404e-06
8.60472e-06
1.60445e-05
1.46781e-05
2.96424e-05
2.46367e-05
1.37236e-05
1.36613e-05
1.5268e-05
5.17988e-06
9.42358e-06
1.23345e-05
3.08842e-05
7.16573e-06
5.49728e-06
1.19373e-05
1.13128e-06
5.23262e-06
3.65053e-06
3.15146e-06
5.61482e-06
8.15899e-06
2.4905e-05
2.79734e-05
1.69004e-05
7.78696e-06
3.58677e-06
6.19266e-06
4.93748e-06
4.76597e-06
8.61365e-06
3.53068e-06
4.37889e-06
2.68683e-06
4.12505e-06
3.53867e-06
2.78778e-06
1.89741e-06
3.12015e-06
6.8322e-06
2.07322e-05
9.59966e-06
6.78403e-06
7.89182e-06
4.43756e-06
1.14712e-05
1.19192e-05
1.27495e-05
9.36558e-06
8.31807e-06
1.07832e-08
3.357e-08
3.32874e-08
3.2429e-08
8.80511e-08
1.7333e-08
8.22669e-09
9.03435e-08
3.01943e-07
7.86513e-08
2.41692e-09
5.78792e-09
4.52242e-09
1.09624e-08
2.58657e-09
1.74315e-08
8.31357e-09
7.32823e-08
8.53249e-08
1.60515e-08
4.37963e-08
2.32573e-07
1.79499e-07
7.75004e-08
2.08617e-07
4.88865e-08
4.24728e-08
1.81012e-07
4.89689e-07
2.0088e-07
6.17007e-09
1.85483e-08
1.45378e-08
3.69347e-08
1.59453e-08
4.53533e-08
2.4022e-08
1.36602e-07
1.7075e-07
4.30525e-08
1.14933e-07
1.50356e-06
2.72521e-06
3.54213e-07
8.91765e-07
4.11632e-07
3.37205e-07
3.30289e-06
8.99952e-07
2.52664e-07
7.71566e-08
1.69872e-07
5.41263e-08
1.09052e-07
1.80889e-07
2.09064e-07
1.85869e-07
5.41463e-07
2.87061e-07
8.86644e-08
2.00981e-07
1.14867e-06
5.20126e-06
3.67861e-06
4.33567e-06
2.63347e-06
5.52629e-06
1.59309e-06
1.26672e-05
5.57291e-06
2.82531e-06
3.86277e-06
1.4765e-05
8.66335e-06
1.92064e-06
1.776e-06
1.10657e-06
6.62301e-07
1.82804e-06
2.61173e-07
4.25808e-07
5.7791e-07
2.47145e-06
1.00301e-05
3.88012e-06
1.83607e-06
4.9338e-06
1.7954e-06
2.44354e-05
4.09275e-05
2.69693e-05
8.72465e-06
3.27884e-06
2.02806e-05
8.7976e-06
3.67751e-06
4.65674e-06
9.97444e-06
6.02371e-06
3.84577e-06
4.8253e-06
9.46748e-06
1.66595e-06
2.33312e-06
3.305e-06
8.93769e-06
6.92384e-06
9.0651e-06
2.43072e-05
6.40258e-05
8.30341e-05
3.16027e-05
6.81929e-06
7.81115e-06
1.05431e-05
3.41923e-06
3.07233e-06
3.43037e-06
1.36619e-05
8.38414e-06
3.4543e-06
5.1321e-06
4.89161e-06
6.20113e-06
6.55084e-06
2.82236e-05
5.0211e-06
8.3832e-06
1.06985e-05
1.49139e-05
2.28667e-05
5.31735e-05
3.05614e-05
8.71341e-06
4.9268e-06
1.19152e-05
5.60742e-06
3.79087e-06
7.88764e-06
1.07587e-05
3.64485e-06
1.1341e-05
5.21341e-06
1.11873e-05
8.26922e-06
1.14508e-05
1.42596e-05
5.25003e-06
1.03467e-05
7.15839e-06
8.42581e-06
9.55817e-06
5.67989e-05
3.54513e-05
6.96354e-06
6.8352e-06
4.48903e-06
5.81034e-06
2.59286e-06
2.63022e-06
2.29972e-05
3.15115e-05
8.73576e-06
7.48677e-06
1.29821e-05
1.41039e-05
2.19283e-05
1.81549e-05
5.4114e-06
6.17701e-06
6.92199e-06
4.8615e-06
8.98763e-06
2.06348e-05
9.50674e-06
4.87094e-06
2.16642e-05
2.72587e-05
1.00926e-05
2.25125e-06
1.16802e-05
5.38663e-06
6.95067e-06
1.29238e-05
1.12908e-05
6.36193e-06
2.43631e-06
5.82454e-06
8.37147e-06
6.19974e-06
2.29094e-05
9.49564e-06
1.27407e-05
9.5896e-06
1.55123e-05
9.05784e-06
1.08971e-05
2.80864e-05
2.84485e-05
5.758e-06
7.80984e-06
2.6186e-06
2.01258e-05
1.7091e-05
5.53437e-06
5.78997e-06
2.2417e-06
4.39663e-06
5.46203e-06
4.28922e-06
1.3512e-05
1.41165e-05
1.59439e-05
1.14726e-05
6.69396e-06
5.27908e-06
7.70176e-06
1.11504e-05
7.54662e-06
5.31559e-06
1.08555e-05
5.68687e-06
7.04375e-06
6.88513e-06
3.08636e-06
3.77031e-06
2.29587e-06
2.2791e-06
2.91268e-06
2.03867e-05
3.82594e-05
1.52225e-05
6.21056e-06
3.98013e-06
3.92432e-06
7.15549e-06
5.51175e-06
7.88e-06
7.65641e-06
1.31475e-05
7.24272e-09
2.20595e-08
2.99493e-08
2.29933e-08
1.04657e-07
1.55074e-08
6.3602e-09
6.21269e-08
7.02424e-08
1.82903e-08
1.44077e-09
3.9437e-10
2.60335e-09
7.51693e-09
5.16031e-09
1.71845e-09
4.7395e-09
3.86152e-08
3.94285e-08
6.91819e-09
5.65607e-08
1.33916e-07
5.95417e-08
5.95148e-08
5.60201e-08
1.61994e-07
2.83042e-08
2.78717e-07
2.57961e-08
1.53631e-08
6.22353e-09
2.36031e-08
5.62677e-08
1.88286e-08
1.66173e-08
4.63035e-09
2.24405e-08
7.4219e-08
9.20726e-08
3.35831e-08
7.83686e-07
1.32386e-07
1.54214e-07
4.36877e-07
1.44422e-06
2.68139e-07
2.5574e-07
6.45382e-07
5.32163e-07
6.37865e-08
2.3167e-08
8.15834e-08