/*--------------------------------*- C++ -*----------------------------------*\
| =========                 |                                                 |
| \\      /  F ield         | OpenFOAM: The Open Source CFD Toolbox           |
|  \\    /   O peration     | Version:  5.0                                   |
|   \\  /    A nd           | Web:      www.OpenFOAM.org                      |
|    \\/     M anipulation  |                                                 |
\*---------------------------------------------------------------------------*/
FoamFile
{
    version     2.0;
    format      ascii;
    class       volScalarField;
    location    "0";
    object      p;
}
// * * * * * * * * * * * * * * * * * * * * * * * * * * * * * * * * * * * * * //

dimensions      [0 2 -2 0 0 0 0];

internalField   nonuniform List<scalar> 
7200
(
4.15379e-05
0.000136219
0.000223137
0.000254762
0.000178685
0.000182934
0.000300209
0.000280885
0.000196301
0.000125768
6.88158e-05
0.000154799
0.00026251
0.000246184
0.000247188
0.000324288
0.000320376
0.000299705
0.000260413
0.000151153
3.54329e-05
0.000133522
0.000222389
0.000235791
0.000154433
0.00018172
0.000301001
0.000282196
0.000172502
9.3556e-05
6.67546e-05
0.00020782
0.000261233
0.000244704
0.000245694
0.000324997
0.000316306
0.000299315
0.000258239
8.29321e-05
3.61222e-05
0.000121805
0.000216093
0.000251475
0.000151914
0.000228857
0.00031987
0.000287659
0.000173497
8.93454e-05
7.40829e-05
0.00019844
0.000256769
0.000219103
0.00024046
0.000328326
0.000326058
0.0002807
0.000228416
6.26003e-05
-2.87421e-05
0.000137796
0.000213791
0.000223671
0.000152689
0.000173897
0.000305751
0.000266558
0.000182147
7.99733e-05
3.90694e-05
0.000188267
0.00022052
0.000179245
0.000212632
0.000332006
0.000332233
0.000320126
0.00027354
0.000166279
-6.07501e-05
3.02829e-05
0.000192415
0.000215196
0.000151682
0.000163294
0.000284731
0.000307871
0.000194009
0.000120738
3.25297e-05
0.00023141
0.000256017
0.00014457
0.000174274
0.000315797
0.000323475
0.000319327
0.000298457
0.000245539
-4.67356e-05
5.07196e-05
0.000137438
0.000201
0.000153185
0.000154397
0.000272423
0.000246475
0.000200788
0.000126932
4.27778e-05
0.000306277
0.000357248
0.000177899
0.000141223
0.000278534
0.000334002
0.000337015
0.000271577
0.000246943
4.31627e-05
3.58997e-05
0.000150104
0.000196034
0.000177061
0.00015055
0.00023464
0.000227767
0.000185063
9.62607e-05
8.25252e-05
0.000297212
0.00040563
0.000270296
0.000157439
0.000229006
0.000330364
0.000356731
0.000309264
0.000334442
0.000162236
8.91826e-05
0.000122161
0.00018404
0.000151798
0.000151402
0.000226047
0.000244309
0.000187834
0.000100725
0.000108501
0.000255014
0.000392958
0.000335144
0.000169626
0.00022201
0.000303121
0.000351701
0.000300715
0.000298977
0.000221038
0.000170934
0.000178824
0.000187087
0.000137361
0.000137809
0.000246175
0.000244407
0.000201788
0.000161373
0.000177081
0.000247512
0.000339656
0.000332476
0.000181655
0.000208256
0.000289539
0.000331338
0.000318166
0.000262864
0.000201987
0.000196914
0.000211863
0.000198289
0.000137871
0.000112491
0.000143816
0.000224698
0.000218956
0.000200339
0.000169963
0.000218773
0.000286048
0.000317176
0.000191891
0.000176966
0.000268709
0.000312674
0.000295213
0.000222666
0.000191072
0.000182142
0.000207858
0.000175131
0.000153733
0.000129533
0.000125653
0.000163421
0.000201632
0.000216944
0.000195593
0.000192456
0.000275149
0.000273333
0.000165988
0.000116728
0.000252792
0.00029892
0.000270998
0.000250163
0.000200262
0.000148688
0.000160698
0.000183637
0.000186251
0.00016355
0.000157967
0.000177838
0.000213698
0.000236541
0.000226464
0.000198965
0.00021916
0.000273717
0.00020259
0.000146779
0.000218195
0.000261595
0.000257455
0.000267426
0.000158215
9.73319e-05
0.000140045
0.000209041
0.00018205
0.000158652
0.000200196
0.000168354
0.000156854
0.000143996
0.000122411
0.00019393
0.000316848
0.000342934
0.000320064
0.00037484
0.000419191
0.000379586
0.000333933
0.000270929
0.000271554
0.000180946
0.000137372
0.000210129
0.000188154
0.00015775
0.000199916
0.000155696
0.000156715
0.000152588
0.000121343
0.000247673
0.000316974
0.000331752
0.000324482
0.000373483
0.00035116
0.000270128
0.000258547
0.000272053
0.00010947
8.35609e-05
0.000165578
0.000204752
0.000160536
0.000153475
0.000145392
0.000153835
0.000141622
0.000150564
0.000173668
0.000242354
0.000311728
0.000332158
0.000344106
0.000371239
0.000356551
0.000260226
0.000258844
0.000284773
0.00026423
0.000142702
0.000122915
0.000168539
0.000154012
0.000113821
0.000110296
9.11321e-05
0.000144973
0.000129021
0.000104432
0.000213394
0.000291497
0.000318406
0.000289685
0.000364812
0.000320373
0.000392211
0.000252019
0.00024133
0.000260578
3.10008e-05
9.5836e-05
0.000152048
0.000135363
0.000103415
0.000122859
0.000114488
0.000174305
0.000156633
9.29155e-05
0.000149766
0.000232692
0.000301374
0.000274448
0.000325197
0.000302498
0.000271498
0.000299018
0.000276234
0.000121412
4.01985e-05
0.000104264
9.63347e-05
6.15496e-05
4.78062e-05
1.62949e-05
8.73537e-05
0.000165843
0.000134277
0.000120002
7.76965e-05
0.000178826
0.000277564
0.000254996
0.000294892
0.000315023
0.000370998
0.000351326
0.000288374
0.000283337
0.000186187
0.000121983
0.000122084
0.000105226
5.51133e-05
0.000122957
9.93416e-05
0.000136097
0.000159761
0.000113861
9.157e-05
0.000222293
0.000301417
0.000264551
0.000266134
0.00025304
0.000293121
0.000378384
0.000459561
0.000272488
0.000134419
0.000104136
0.000170191
0.000148213
0.000126331
0.000179407
0.000105736
0.00015577
9.11646e-05
0.000133951
0.000112204
0.000145152
0.000302367
0.000207748
0.000244843
0.000277616
0.000332656
0.000354782
0.000402842
0.00031223
0.000241802
0.000204074
0.000142378
6.11645e-05
0.000108957
0.00020084
0.000180486
0.000133023
0.000125018
0.000140965
0.00016773
0.00019588
0.000275719
0.000185886
0.000187001
0.000221492
0.000322466
0.000323589
0.000337902
0.000315146
0.000282506
0.000309768
0.000172487
8.098e-05
8.67114e-05
0.00015196
0.000156431
0.000168677
0.000170772
0.000151985
0.000211004
0.000250433
0.000239336
0.000188396
0.000195255
0.000243415
0.000237231
0.000282782
0.000264945
0.000259818
0.000259749
0.000271887
0.00018023
0.000140654
0.000125668
0.000138769
0.000134998
0.000175367
0.000202107
0.000199755
0.000200775
0.000233364
0.000243865
0.000198461
0.000180017
0.000248141
0.000287504
0.000284618
0.000294207
0.00023964
0.000211735
0.000199128
0.000190122
0.000191507
0.000184273
0.000174558
0.000180255
0.000198833
0.000204788
0.000185495
0.000181661
0.000218912
0.000233955
0.000206441
0.000189094
0.000216112
0.000274086
0.000271062
0.000280102
0.000569385
0.000499447
0.000314346
0.000241698
0.000212338
0.000159572
0.000128144
0.00011366
0.000157208
0.000193365
0.000205272
0.000235125
0.000295508
0.00029859
0.000227313
0.000177591
9.76449e-05
9.78303e-05
0.00017603
0.00032208
0.000571586
0.00042451
0.000316055
0.00023583
0.000212174
0.000159033
0.000116129
0.000112739
0.000176457
0.00019299
0.000204675
0.000257316
0.000311941
0.000272161
0.000206747
0.000175737
7.55938e-05
9.44674e-05
0.000173063
0.000318408
0.000592935
0.000519527
0.000322324
0.000235217
0.000210389
0.000155962
0.000124795
0.000109934
0.000176806
0.000192309
0.000199168
0.000229424
0.000297829
0.000299224
0.000213864
0.000164843
6.32451e-05
8.24182e-05
0.000198467
0.000306579
0.000607318
0.000565997
0.000342379
0.000231665
0.000178225
0.000135168
0.000104245
0.000103771
0.000184771
0.000200102
0.000192527
0.000212769
0.000303301
0.000292043
0.000161489
0.000124601
7.34742e-05
7.65324e-05
0.000142407
0.000273918
0.00058662
0.00051362
0.000366901
0.00023559
0.000172304
0.000135459
0.000117586
0.000119829
0.000160912
0.000201918
0.000180376
0.000182146
0.000229456
0.000212848
0.000120411
0.000107312
0.000101983
9.05281e-05
0.000141892
0.000234359
0.000497371
0.000527951
0.000394817
0.000221946
0.000157222
0.000138796
0.000121604
8.88983e-05
0.000127964
0.000157024
0.000176757
0.000138331
0.000201433
0.000185092
8.23701e-05
8.79769e-05
0.000125532
0.000124348
0.000145133
0.000288854
0.000464949
0.000516919
0.000425153
0.000205646
0.000131163
0.000137391
0.000134976
5.89529e-05
3.81242e-05
9.95911e-05
0.000148673
0.000116641
0.000146503
0.000241
7.50053e-05
9.39733e-05
0.000128819
0.000143252
0.000163588
0.000214587
0.000377456
0.00043664
0.000345844
0.000162451
0.000123309
0.000126652
0.000193172
7.35837e-05
3.46061e-05
9.36696e-05
0.000151264
8.37127e-05
0.000162187
0.000163177
0.000106958
0.000120196
0.000149519
0.000171913
0.000176526
0.000259268
0.000345336
0.000353565
0.000364254
0.000189943
0.000114219
0.000101651
0.000201227
0.000172031
0.000122943
0.000108888
0.000165339
0.000185071
0.000215247
0.000133777
9.61991e-05
0.00015162
0.000197242
0.000209408
0.000196081
0.000234696
0.000319329
0.000307227
0.000304891
0.000243165
0.000195647
0.000162652
0.000172887
0.000164833
0.000203098
0.000157627
0.000131123
0.00020983
0.000221108
0.000194153
0.000160526
0.000182627
0.000232287
0.000212963
0.000220416
0.000232765
0.000240359
0.000272544
0.000274317
0.000260556
0.00018467
0.000141194
0.00017336
0.000191522
0.000228638
0.000239418
0.000214739
0.000187173
0.000206907
0.000206345
0.000206643
0.000207569
0.000221981
0.000268894
0.000265477
0.000237295
0.000246409
0.000260472
0.000251487
0.000226389
0.000205204
0.000195491
0.000189798
0.000211534
0.000234543
0.00024535
0.0002012
0.00018375
0.000208802
0.000216205
0.000191281
0.000194315
0.000244324
0.000268809
0.000272196
0.000266951
0.00054792
0.000435762
0.00027671
0.000241144
0.000241382
0.000182432
0.000137181
0.000137276
0.00019496
0.000223151
0.000218894
0.000224343
0.000258524
0.000243736
0.000159725
0.000106137
8.54814e-05
0.00013797
0.000265064
0.000435803
0.000528885
0.000437355
0.000277153
0.000241057
0.000241156
0.000181983
0.000137075
0.000137144
0.000212863
0.00022339
0.000217017
0.000223752
0.000264554
0.000244342
0.000158052
9.33629e-05
8.20636e-05
0.000181727
0.000262776
0.000435685
0.00056152
0.000443684
0.00027846
0.000251231
0.00021757
0.000180407
0.00012699
0.000136329
0.000214573
0.000221423
0.000212074
0.000231019
0.000264786
0.000208589
0.000117633
9.113e-05
8.06125e-05
0.000128062
0.000254561
0.00043613
0.000572187
0.000385535
0.000281653
0.000255239
0.000243988
0.000161526
0.000139084
0.000163316
0.000206123
0.000228828
0.000207715
0.000205649
0.000258688
0.000200522
0.000126151
8.01676e-05
8.00702e-05
0.000125025
0.000246129
0.000525239
0.000599596
0.000403065
0.000283857
0.000256794
0.000221323
0.000186235
0.000152589
0.000177643
0.000239242
0.000240022
0.00018919
0.000187465
0.000249649
0.000200401
0.000127157
0.000101758
7.31746e-05
8.35955e-05
0.000253694
0.000400016
0.000579931
0.000422907
0.000283874
0.000232544
0.000213882
0.000186815
0.000164658
0.000175588
0.000234918
0.000235908
0.000180559
0.000161411
0.000220874
0.000198654
9.67341e-05
9.84711e-05
9.01737e-05
6.64557e-05
0.00011431
0.00039266
0.000486454
0.000459451
0.000210635
0.000185149
0.000188327
0.000188244
0.000146742
0.000127002
0.000183132
0.000193706
0.000199562
0.000142037
0.000248693
0.000232307
0.000106506
0.00010103
0.000119592
8.28895e-05
9.31044e-05
0.00026379
0.000413924
0.000437821
0.000263002
0.000125622
0.000182277
0.00015586
0.000191828
0.000106638
0.000121
0.000151609
0.000184683
0.000137669
0.000200994
0.000161824
0.000105525
0.000137854
0.000141711
0.000135255
0.000106348
0.000170247
0.000344014
0.00038489
0.000363513
0.000188795
0.000187549
0.00013921
0.000230035
0.000197248
0.000159061
0.000132688
0.000151624
0.000192934
0.000186189
0.000119619
0.000116102
0.000182198
0.000211794
0.000195924
0.000154989
0.000184789
0.000301748
0.000272798
0.000283799
0.000225424
0.000199223
0.000190629
0.000177538
0.00023341
0.000224773
0.000171449
9.36582e-05
0.000197691
0.000210998
0.000169788
0.00014979
0.000174137
0.000252978
0.000255683
0.000219511
0.000186482
0.000260162
0.00028459
0.000279315
0.000260331
0.000195652
0.000148779
0.00016728
0.000233584
0.000251835
0.000218096
0.000126904
0.000151845
0.000187015
0.000170703
0.000176583
0.000212672
0.000256428
0.000293979
0.000254926
0.000204777
0.000257837
0.000272403
0.000263565
0.000228321
0.00022638
0.000194692
0.000192537
0.000219798
0.00027014
0.00025852
0.000206276
0.000174196
0.000188181
0.000202365
0.000173648
0.000190994
0.000245775
0.00026292
0.000268573
0.000258071
0.000329263
0.000244777
0.000161259
0.000228128
0.000319481
0.000220301
0.000116947
0.000147309
0.000235799
0.00028423
0.000283365
0.000250435
0.000193621
0.000149708
0.000171953
0.000226303
0.000245034
0.000245418
0.000304736
0.000347931
0.000229978
0.000243582
0.000159262
0.000227159
0.000321492
0.000221198
9.4803e-05
0.000146862
0.000261502
0.000284766
0.000326183
0.000283885
0.000185005
0.00015068
0.000171698
0.000260031
0.000273785
0.000245145
0.000304767
0.000348288
0.000325008
0.000189261
0.00015292
0.000224162
0.000297945
0.00014953
8.79276e-05
0.000143964
0.000281297
0.000330921
0.000327864
0.000250601
0.000182561
0.000119492
0.000193646
0.000285674
0.000288016
0.000280032
0.000326399
0.000352385
0.00019531
0.000150685
0.000144622
0.000276255
0.000310017
0.000230186
7.48771e-05
0.000192044
0.000245724
0.000318978
0.000330563
0.000219679
0.000161057
0.000108991
0.000178016
0.000299109
0.000276659
0.000273123
0.000304716
0.000254159
0.000172492
0.000162433
0.000112435
0.000184229
0.000325475
0.000218975
6.65882e-05
0.000123745
0.00029456
0.000292683
0.000329684
0.000263954
0.000191695
0.000147306
0.000219441
0.000286939
0.000268866
0.000189069
0.000276566
0.000250998
0.000137737
0.000162405
0.00012672
0.00017682
0.000309786
0.000222193
1.95728e-05
0.000140076
0.000264517
0.00028436
0.000312886
0.000275745
0.00020603
0.000146343
0.000234778
0.000287983
0.000300643
0.000165361
0.000216645
0.00020595
0.000253277
0.000214225
9.96824e-05
0.000217746
0.000287241
0.000179553
0.000114027
8.98489e-05
0.000201427
0.000247257
0.000278979
0.000264238
0.000154586
0.000139599
0.000221403
0.000264741
0.00030676
0.000173081
0.000236932
0.00029555
0.000201961
0.00020709
0.000168379
0.00013011
0.000303783
0.000243109
0.000158784
3.93061e-05
0.000151778
0.000220584
0.000252468
0.000210749
0.000154249
0.000139732
0.00018303
0.000220205
0.000251687
0.000224196
0.000187722
0.000256142
0.000257597
0.000271578
0.000234442
0.000111123
0.000294767
0.000222963
0.000142081
7.32828e-05
2.97151e-05
0.000119794
0.000127344
0.000240037
0.000235639
0.000177342
0.000153291
0.000224005
0.000230018
0.000252758
0.000163247
0.000185965
0.000167562
0.000190299
0.000244175
0.000238848
0.000278158
0.000253788
0.000131054
0.000138065
7.07527e-05
-1.42643e-06
4.0313e-05
0.000161441
0.0002762
0.000215576
0.000159382
0.00022546
0.000289535
0.000286667
0.000217545
0.000122884
0.000222403
0.00028609
0.000293062
0.000259061
0.000247648
0.000174198
0.000174105
0.000228509
0.000205774
0.000100437
-7.24576e-05
-3.64556e-05
1.86288e-05
7.94658e-05
0.000127915
0.00023091
0.00028896
0.000311927
0.000219115
0.000117273
0.000237467
0.000256314
0.000271954
0.000243308
0.00026614
0.000222458
0.000157568
0.000216129
0.000276306
0.00026376
0.000204778
0.000147313
0.000100453
7.64854e-05
0.000135828
0.000217575
0.000252712
0.000267849
0.000265879
0.000259245
0.000148873
0.000184964
0.000189192
0.000220762
0.000249426
0.00017421
0.000137805
0.000192694
0.000229025
0.000342505
0.000374297
0.000366022
0.000226452
0.000107852
0.000166577
0.000260655
0.000314934
0.000283802
0.000214075
0.000160873
0.000147189
0.000192277
0.000192384
0.000220541
0.000229024
0.000174184
0.000138755
0.000197275
0.000272331
0.000343155
0.000374636
0.000366709
0.000157641
0.000115009
0.000205737
0.000291026
0.000316294
0.000257126
0.000214021
0.00014759
0.000139111
0.000193139
0.00019176
0.000243972
0.000229349
0.000173392
0.000141762
0.000192924
0.000222267
0.000367572
0.000373801
0.000367342
0.000150804
9.81603e-05
0.000205582
0.000263194
0.000319714
0.000257657
0.000210313
0.000139262
0.000131153
0.000192406
0.000197199
0.000212132
0.000227705
0.000162936
0.000115063
0.000161096
0.000199553
0.000345947
0.000357998
0.000352152
0.00020037
7.03604e-05
0.000155175
0.000270453
0.00033274
0.000295543
0.000196201
0.000112605
0.000123232
0.00018596
0.000195303
0.000227108
0.000219087
0.000137396
8.95877e-05
9.73406e-05
0.000162717
0.00037374
0.00034109
0.000316539
0.000159756
5.78146e-05
0.000196199
0.000321333
0.000346919
0.000302806
0.000150319
0.000101194
0.000131664
0.000191909
0.000203069
0.000202705
0.000201309
3.67099e-05
3.24827e-05
4.58049e-05
0.000235631
0.000384626
0.000343174
0.000296829
0.00012091
-2.21175e-05
0.000114212
0.000288422
0.000381432
0.000316129
0.000166123
0.000111299
9.77386e-05
0.000204716
0.000200793
0.000209788
0.000191078
3.61077e-05
5.73721e-06
3.24573e-05
0.000216427
0.000377094
0.000353756
0.000323466
2.84305e-05
-3.90002e-05
0.000172233
0.000334359
0.000405607
0.000283229
0.000176945
8.82457e-05
9.01886e-05
0.000211985
0.00022053
0.00021244
0.000166202
0.000159912
7.66238e-05
6.40882e-05
0.000167736
0.000339674
0.000340593
0.000295487
7.99261e-05
2.10717e-05
0.000120856
0.000245939
0.000382178
0.000344121
0.000213887
0.000125588
0.000115121
0.000160397
0.000252613
0.000225669
0.000165106
0.000232266
0.000210763
0.000112589
0.000108062
0.000277322
0.000316245
0.000323
0.000200626
7.80749e-05
0.000127595
0.000235436
0.000320282
0.000329214
0.000235387
0.000160862
0.000158438
0.00022533
0.000257441
0.000223875
0.000217065
0.000211956
0.000214352
0.000127322
0.000133932
0.000188421
0.000217927
0.000252205
0.000177809
0.000112732
0.000179368
0.000232915
0.000316677
0.000316165
0.000233547
0.000193178
0.000158482
0.000263195
0.000261493
0.000212703
0.000212221
0.000186771
0.00018446
0.000154398
0.000175298
0.000188536
0.00016833
0.000184484
0.000162031
0.000143891
0.00017715
0.000240727
0.000250986
0.000282727
0.000281219
0.000169299
0.000206278
0.000198043
0.000243322
0.000229398
0.000235572
0.000212451
0.000169392
0.000203518
0.00021286
0.000237538
0.000197705
0.000175562
0.000160194
0.000162044
0.000149658
0.000216242
0.000258649
0.000272423
0.000258054
0.00024229
0.000146926
0.000191357
0.000193657
0.000237082
0.00022957
0.000106958
0.000107071
0.000242641
0.000241101
0.000364934
0.000409264
0.000432149
0.000289554
0.000138425
0.000168315
0.000237313
0.000284431
0.000248006
0.000162068
0.000123939
0.000144671
0.000194585
0.000193217
0.000236601
0.000191098
0.000105794
0.000105504
0.000245922
0.000282366
0.000365301
0.000426751
0.00043369
0.000210772
0.000137092
0.000167684
0.000259039
0.000285029
0.000212169
0.000161347
0.000122106
0.000131598
0.000188313
0.000190812
0.000233151
0.000230172
0.000103529
9.87054e-05
0.000257842
0.000278466
0.000396505
0.000406654
0.000402842
0.000288934
0.000129604
0.000163996
0.000234809
0.000287627
0.000210026
0.000131319
0.00010828
0.000106464
0.000197984
0.000206871
0.000241939
0.000223408
0.000110963
0.000129866
0.000236813
0.000271185
0.00036809
0.000394253
0.000403008
0.000181116
0.000100708
0.000145551
0.000253924
0.00031239
0.000272644
0.000113299
6.09564e-05
6.47684e-05
0.000182269
0.000215618
0.000227594
0.00018576
0.00011446
3.67171e-05
0.000168951
0.00023214
0.000400644
0.000405754
0.000394174
0.000245323
6.65834e-05
0.000106926
0.000236089
0.000346445
0.00026024
0.000158791
5.80462e-05
1.84075e-05
0.000168517
0.000211743
0.000232806
0.000162485
0.000110341
9.37315e-06
0.00019786
0.000196953
0.000300904
0.0003713
0.000392358
9.36454e-05
5.76668e-06
6.98243e-05
0.000130322
0.000317656
0.000389794
0.000204893
4.11821e-05
8.75671e-05
0.000186264
0.00022768
0.000251104
9.68311e-05
-4.34808e-05
-3.09216e-05
0.00015917
0.000168936
0.000254905
0.000365102
0.000406339
6.27026e-05
-4.34096e-05
3.30565e-05
0.000187023
0.000311484
0.000401428
0.000256786
9.58278e-05
0.000122021
0.000194976
0.000249636
0.000248074
0.000138647
9.26659e-06
-6.24549e-05
4.28768e-05
0.000180361
0.000286294
0.000361293
0.000413895
9.78904e-05
1.95937e-06
8.71579e-05
0.000216559
0.000303567
0.000349418
0.00026523
0.000175163
0.000105524
0.000238765
0.000282912
0.00022074
0.000151315
0.000122664
0.000121801
0.000109922
0.000171907
0.000255221
0.000278491
0.000358994
0.000237773
4.14915e-05
0.000167214
0.000248324
0.000306319
0.00032584
0.000239279
0.00018516
0.00016574
0.000196855
0.000259992
0.000220821
0.000204024
0.000151386
0.000184689
0.000131382
0.000143564
0.000225176
0.000247971
0.000265606
0.000161006
9.71344e-05
0.000191884
0.000237642
0.000311855
0.000299514
0.000251714
0.000205877
0.00020614
0.00022242
0.000257422
0.000220404
0.000202145
0.000176228
0.000184938
0.000164178
0.000195966
0.000203753
0.000201787
0.000226724
0.00019209
0.000160671
0.000197112
0.000246763
0.000251129
0.000276066
0.000285188
0.000238698
0.000254577
0.000225371
0.000234029
0.000232944
0.000234181
0.0002063
0.000178551
0.00019492
0.000215022
0.000243878
0.000200737
0.000172308
0.000174628
0.000187956
0.000196238
0.000255139
0.000262717
0.000267093
0.000258603
0.000283835
0.000283964
0.000231534
0.000311489
0.000594803
0.000213991
6.60324e-06
-0.000124787
9.86335e-08
0.000304946
0.000542097
0.00048439
0.000438225
0.000344157
0.000219005
0.000208155
0.000258419
0.000243231
0.00020284
0.000202893
0.00023132
0.000267123
0.00021022
0.000306558
0.000485636
0.000212248
1.36882e-06
-0.00012956
-3.40125e-06
0.000422204
0.000552936
0.000450637
0.000419297
0.000343885
0.000218991
0.000208511
0.000258649
0.000242435
0.000201111
0.000201791
0.00023045
0.000269364
0.000208701
0.000294097
0.000616229
0.000209489
-7.50953e-05
-0.000139264
-1.5131e-05
0.000287909
0.000556052
0.000450178
0.000420124
0.000342499
0.000198845
0.00023506
0.000261413
0.00024331
0.00018902
0.000199816
0.000253789
0.00027076
0.000221589
0.000388314
0.000600665
0.000227392
-7.27671e-05
-0.000186202
-7.60079e-05
0.000230211
0.000494518
0.000443704
0.00042777
0.00033212
0.00021265
0.000245438
0.000269445
0.00023916
0.000185886
0.000175021
0.000232055
0.000274655
0.000246614
0.000323995
0.000504311
7.28451e-05
-6.1145e-06
-0.000135235
-0.000123569
0.00026421
0.000373711
0.000381112
0.00038126
0.000285545
0.000187709
0.000254562
0.00027464
0.000250746
0.000194131
0.00017403
0.000204931
0.00029804
0.000259038
0.000302669
0.000391873
0.000207547
5.31191e-05
-7.28593e-05
-6.0424e-05
0.000227245
0.00036861
0.000290569
0.000314976
0.000222219
0.000146626
0.000235343
0.000291988
0.000249962
0.000197646
0.000182306
0.000255602
0.000305759
0.000281008
0.000281879
0.000315711
0.000139754
5.76114e-05
6.28983e-05
1.68319e-05
0.000156227
0.000350354
0.000305554
0.000309873
0.000208797
0.000105233
0.000227348
0.000288252
0.000238591
0.000218857
0.00019386
0.000252052
0.000263035
0.00027809
0.000266964
0.000267467
0.000144898
3.58281e-05
4.00857e-06
5.49228e-05
0.000215503
0.000296532
0.000347016
0.000354854
0.00015247
9.19154e-05
0.00019025
0.00027882
0.000283416
0.00022194
0.00020991
0.000206891
0.000243354
0.000248217
0.000254566
0.000245786
0.000179329
5.57048e-05
5.49441e-05
0.000131006
0.000230904
0.000283477
0.000335695
0.000340863
0.000238083
4.38928e-05
0.00015905
0.000220257
0.000281241
0.000266432
0.000247947
0.000221966
0.000223934
0.000230438
0.000230422
0.00022789
0.000150284
0.000110012
0.000122733
0.000119353
0.000189883
0.00026611
0.000297529
0.000309052
0.000178731
9.06221e-05
0.000140352
0.000218361
0.00026156
0.00026178
0.000268903
0.000250736
0.000181417
0.000203594
0.000231571
0.000217943
0.00018329
0.00013405
0.000145858
0.000167228
0.000219011
0.000262421
0.000261557
0.000265822
0.000202626
0.000158816
0.000176711
0.00026298
0.000286978
0.000265937
0.000248205
0.000242279
0.000255582
0.000238108
0.000258109
0.000250965
0.000228425
0.000212938
0.000189613
0.000198961
0.000226767
0.000245894
0.000233355
0.000199126
0.000201531
0.000179858
0.00016722
0.000265821
0.000272623
0.000259574
0.000258974
0.000270448
0.000277669
0.000270836
0.000253855
0.000187626
0.00018713
0.000319374
3.86975e-05
4.43587e-05
0.000273744
0.000397277
0.000342875
0.000416013
0.00033891
0.000177692
0.00015785
0.000305287
0.000332621
0.000193352
0.000147114
0.00024115
0.000278067
0.000279491
0.000253758
0.000184576
0.000246676
0.000324347
4.04911e-05
4.26162e-05
0.000351409
0.000375015
0.000354794
0.000422715
0.000338945
0.000146049
0.000206336
0.000306774
0.000334861
0.000192203
0.000143362
0.000241318
0.000266944
0.000278951
0.000222572
0.000133753
0.0001633
0.000343784
4.29755e-05
3.01109e-05
0.000253416
0.000376733
0.000339957
0.000427031
0.000336527
0.000170742
0.000151072
0.000312286
0.000295753
0.000142148
0.000129459
0.00027291
0.000291069
0.000262903
0.000244954
0.000148602
0.000112705
0.000364725
6.34498e-05
-3.6577e-05
0.00027476
0.000359236
0.000310736
0.000432056
0.000238732
0.000137301
0.000210078
0.000369591
0.000320599
0.000173792
0.000164354
0.000242237
0.000315819
0.000241201
0.000168799
0.00011551
0.000160403
0.000427215
0.000115909
-9.6136e-05
0.000133357
0.000300898
0.000224889
0.000371901
0.000210378
0.000136865
0.000221176
0.000332611
0.000324585
0.000190556
0.000182512
0.000297178
0.00031099
0.000235085
0.000174096
0.000158327
0.000186892
0.000307365
-4.16071e-05
-4.5729e-05
8.62647e-05
0.00020845
9.16808e-05
0.000260379
0.000213193
6.39881e-05
0.000123739
0.000363938
0.000364053
0.000228052
0.00017108
0.000317591
0.000330712
0.000238554
0.000226771
0.000231273
0.000227033
0.000277864
0.000209753
-1.13199e-05
0.000106269
0.000265675
0.000176327
9.78612e-05
8.87822e-05
9.61548e-06
3.26971e-05
0.000457547
0.000365792
0.000214768
0.00015101
0.000320093
0.000264874
0.00021944
0.000223912
0.000283219
0.000259173
0.000154706
0.00015055
9.41303e-05
0.000163877
0.00039258
0.000406619
0.000230326
4.96385e-05
2.50385e-05
7.20774e-06
0.000529164
0.000300739
0.000162277
0.000185335
0.000291936
0.000227315
0.000182451
0.000209674
0.000241179
0.000173137
0.000113031
9.0282e-05
0.00010128
0.000236149
0.00031452
0.00034337
0.00034549
0.000213098
5.10962e-05
9.96211e-05
0.000418298
0.000300036
0.000187974
0.000186063
0.000248781
0.000202713
0.000196983
0.000213489
0.000203664
0.000150094
0.000109486
0.000115203
0.000144142
0.000221508
0.000272936
0.000276502
0.000297037
0.000174045
0.000122647
0.000151082
0.000271143
0.000303927
0.000207004
0.000206882
0.000233622
0.000210774
0.000213374
0.000201009
0.000217705
0.000206982
0.000125743
0.000133704
0.000151351
0.000213704
0.00024704
0.000252925
0.000250426
0.000194261
0.000162554
0.000210722
0.000291935
0.000288048
0.000244272
0.000225402
0.000250155
0.000236387
0.000247379
0.000245927
0.000240955
0.000228555
0.000213285
0.000187685
0.000174725
0.000209473
0.000215559
0.000186184
0.000217076
0.000245633
0.000181693
0.000216553
0.0002673
0.000270452
0.000249798
0.0002465
0.000237133
0.000285449
0.000279725
0.000225597
0.000129207
0.000243808
0.000284623
-1.37915e-05
0.000121248
0.000282462
0.000246508
0.000159148
0.000386346
0.000374973
0.000224631
0.000143548
0.000266668
0.000380329
0.000252646
0.000153475
0.000211224
0.00028602
0.000269555
0.000224447
0.000124814
0.00030877
0.000289172
-1.69246e-05
0.000120173
0.000291026
0.000242558
0.000153398
0.000428766
0.000376332
0.000176231
0.000140917
0.000265621
0.000354208
0.000253222
0.000149328
0.000208354
0.000288836
0.000269638
0.00017004
0.000131534
0.000312698
0.000175518
-2.89683e-05
0.000194001
0.000241309
0.000166346
0.000210339
0.000432476
0.000308653
0.000171053
0.000134306
0.000334217
0.000368179
0.000188524
0.000139039
0.000195866
0.000301301
0.000266178
0.000146967
0.000101578
0.000214255
0.000218352
-6.26877e-05
0.000117584
0.000156795
8.98882e-05
9.04055e-05
0.00037596
0.000285703
0.000162844
0.000169589
0.000331064
0.000375802
0.000182708
0.000121052
0.000215759
0.000293363
0.000272253
0.000119313
4.47691e-05
0.000283581
0.000345075
-7.30614e-05
8.30834e-05
0.000115718
-2.51754e-05
8.28742e-05
0.000336394
0.000367066
0.000168933
0.000140764
0.000338586
0.000357111
0.000242375
0.000124371
0.000231299
0.000290891
0.000241701
0.000210022
6.23895e-05
0.000265302
0.000309858
-3.30899e-05
0.000220296
0.000129554
-7.01909e-05
-7.32002e-05
0.000319119
0.000292061
0.000212992
0.000182718
0.000347361
0.000355407
0.000174661
0.000111212
0.00024249
0.000275885
0.000240866
0.000218726
0.00013539
0.000191748
0.000200822
-5.42578e-05
0.000104701
0.000207489
0.000104476
-5.2102e-05
0.000111371
0.000171593
0.00021697
0.000177209
0.000372074
0.000362268
0.000189442
0.000106726
0.000231681
0.000256267
0.000226995
0.00023603
0.000175725
0.000184476
0.00017265
5.79998e-05
0.000132689
0.000169573
0.000181135
0.000157577
0.000200791
3.7111e-05
6.29771e-05
8.46862e-05
0.000413824
0.000309021
0.000163546
0.00011984
0.000240356
0.000175617
0.000192284
0.000241153
0.000216019
0.000143195
0.000114307
6.8509e-05
0.000116902
0.000237696
0.00024147
0.000267336
0.000301727
0.000182623
0.000113528
0.000155596
0.00038114
0.000252209
0.00015302
0.000166431
0.00022964
0.000198057
0.000200044
0.000255449
0.000191998
0.000137169
9.15064e-05
0.000105371
0.00016604
0.000226343
0.000239151
0.000232978
0.000266152
0.000177351
0.000149699
0.000190537
0.000335623
0.000252048
0.000178299
0.000188996
0.000200202
0.000217557
0.00023198
0.000220117
0.000219468
0.000217463
0.000143771
0.000125986
0.000158252
0.000208898
0.000243372
0.000233633
0.000233901
0.000202542
0.000186894
0.000237578
0.000329755
0.000278719
0.0002223
0.000229868
0.0002406
0.000233709
0.000244264
0.000245868
0.000241899
0.000229758
0.000211143
0.000182372
0.00016338
0.000201831
0.000196721
0.00017568
0.00021011
0.000234905
0.000188169
0.000223875
0.000256767
0.000274881
0.000250775
0.000244717
0.000228432
0.000245811
0.000219061
0.000193667
0.00022332
0.000205419
0.00018334
3.59009e-05
0.000180249
0.000394584
0.000400439
0.000320754
0.000328328
0.000335258
0.000345298
0.000310803
0.000265605
0.000152057
0.000255616
0.000407052
0.000365288
0.00023001
0.000211316
0.000194317
0.000254108
0.000178919
0.0001835
3.99908e-05
0.000272718
0.000340406
0.000339662
0.000321553
0.000296175
0.000316116
0.000344921
0.000311271
0.000266669
0.000169713
0.000253306
0.000408665
0.000317569
0.0002189
0.000213799
0.000278986
0.000230229
0.000202428
0.000150478
0.000108551
0.000191694