/*--------------------------------*- C++ -*----------------------------------*\
| =========                 |                                                 |
| \\      /  F ield         | OpenFOAM: The Open Source CFD Toolbox           |
|  \\    /   O peration     | Version:  5.0                                   |
|   \\  /    A nd           | Web:      www.OpenFOAM.org                      |
|    \\/     M anipulation  |                                                 |
\*---------------------------------------------------------------------------*/
FoamFile
{
    version     2.0;
    format      ascii;
    class       volVectorField;
    location    "0";
    object      U;
}
// * * * * * * * * * * * * * * * * * * * * * * * * * * * * * * * * * * * * * //

dimensions      [0 1 -1 0 0 0 0];

internalField   nonuniform List<vector> 
7200
(
(0.0325975 0.000244734 0.00736842)
(0.0326389 -0.000116146 0.00676733)
(0.0314247 -9.79802e-05 0.00580243)
(0.0281241 8.48593e-06 0.00414887)
(0.0224198 -4.4143e-05 0.00331487)
(0.0187969 -0.000338236 0.00379754)
(0.0186931 -0.000383712 0.00349284)
(0.0194008 -0.0001662 0.00178961)
(0.0205848 3.65854e-05 7.83352e-05)
(0.0229563 0.000130603 -0.00154411)
(0.0260035 5.49394e-05 -0.00389778)
(0.0293599 -7.665e-05 -0.00646339)
(0.0295823 -4.24785e-05 -0.00712257)
(0.0251143 -3.89164e-05 -0.00628085)
(0.0204716 -0.000212273 -0.00583282)
(0.0186122 -0.000255589 -0.00606379)
(0.0200489 2.31495e-05 -0.00410744)
(0.0234945 0.000453408 -9.96097e-05)
(0.0275547 0.000594931 0.00259915)
(0.0309282 0.000630901 0.00553115)
(0.0568049 0.000308703 0.0105626)
(0.0571714 -0.000367598 0.00919144)
(0.0549961 -0.000258968 0.00811788)
(0.047255 6.69461e-05 0.00557315)
(0.0382234 -0.000352111 0.00508953)
(0.0341606 -0.000741787 0.00562993)
(0.0319021 -0.000823831 0.00521052)
(0.0319972 -0.000381683 0.00290412)
(0.0349613 9.08807e-05 -6.00412e-05)
(0.0397287 9.32855e-05 -0.00239627)
(0.0435873 -0.000118795 -0.00457675)
(0.0523124 -0.000349978 -0.00991887)
(0.0526666 -0.000209115 -0.0103806)
(0.0464125 -0.000133364 -0.00866507)
(0.0380162 -0.000443632 -0.00775619)
(0.0323816 -0.000581273 -0.00881228)
(0.0340242 0.00026288 -0.00459038)
(0.0378152 0.000830615 -0.000865579)
(0.0450199 0.0011873 0.00351032)
(0.0541435 0.00102876 0.00939596)
(0.104249 -0.000445904 0.0141726)
(0.10343 -0.00109803 0.0129601)
(0.100001 -0.000833759 0.0094147)
(0.096169 -8.7112e-05 0.0096375)
(0.0854939 -0.000350047 0.00631747)
(0.0688435 -0.00169503 0.00810953)
(0.0584813 -0.00181877 0.0076655)
(0.0562639 -0.00121038 0.00569126)
(0.0570776 -0.000256826 0.00320853)
(0.0627238 -0.000503116 0.00232114)
(0.0721195 -0.00207985 0.000331823)
(0.0861864 -0.00261839 -0.00636786)
(0.096658 -0.00118022 -0.013286)
(0.09222 -0.00044633 -0.011743)
(0.0843116 -0.000775119 -0.0092165)
(0.0698835 -0.00107329 -0.0105458)
(0.0577889 -0.000864548 -0.0127992)
(0.0625962 0.00098684 -0.00541953)
(0.076975 0.00146032 0.000536647)
(0.0925831 0.0013553 0.00757747)
(0.126355 -0.00433354 -0.00169252)
(0.134624 -0.00163808 0.0108882)
(0.126634 -0.00153692 0.00921059)
(0.132217 -0.000401912 0.00880299)
(0.131415 -0.000882665 0.0099876)
(0.131711 -0.0010395 0.00596295)
(0.12238 -0.00114583 0.00829553)
(0.0909229 -0.00209643 0.00858443)
(0.0834106 -0.00111834 0.0066306)
(0.0830503 -0.00149829 0.007297)
(0.0831976 -0.00407729 0.00922258)
(0.0888578 -0.0104734 0.0140576)
(0.0989736 -0.00976442 0.00971721)
(0.123677 -0.00542386 -0.00497196)
(0.133696 -0.00275123 -0.0108989)
(0.120303 -0.0011659 -0.00767976)
(0.116707 -0.000327488 -0.00921833)
(0.101622 -0.000375137 -0.0153926)
(0.0926459 -0.00301507 -0.0209555)
(0.100949 -0.00360199 -0.0175025)
(0.12465 -0.00938526 -0.01175)
(0.135964 -0.00685322 -0.00167375)
(0.134796 -0.00068475 0.00790717)
(0.130443 -0.00198675 0.00472716)
(0.139671 -0.000113285 0.00750053)
(0.135383 -0.00233875 0.00651042)
(0.139642 -0.00330481 0.00531884)
(0.134874 -0.000663965 0.0104881)
(0.104203 -0.00100075 0.00940872)
(0.101916 -0.0013781 0.00908033)
(0.107108 -0.00446477 0.0073761)
(0.105155 -0.0127818 0.0159852)
(0.105098 -0.0134212 0.0179154)
(0.120953 -0.00973112 0.00559271)
(0.133093 -0.00342731 -0.00731364)
(0.113591 -0.00114959 -0.00437257)
(0.112764 -0.00185465 0.00151404)
(0.127477 0.00151412 -0.00327946)
(0.117148 -0.00520496 -0.0234598)
(0.113483 -0.00678086 -0.0260727)
(0.129034 -0.0106726 -0.0182311)
(0.140546 -0.00945851 -0.00388461)
(0.14537 -0.00339238 0.00186788)
(0.13813 -0.000920058 0.00300706)
(0.136996 -0.00160439 0.00241093)
(0.142481 -0.00221919 0.00483608)
(0.140724 -0.00789179 0.00459595)
(0.147647 -0.000830565 0.00872033)
(0.130632 0.00217673 0.00967805)
(0.120888 -0.000129838 0.0105198)
(0.124369 -0.00645597 0.00439034)
(0.133293 -0.0106265 0.00752205)
(0.124809 -0.0118825 0.0147133)
(0.121704 -0.0103935 0.0110797)
(0.128832 -0.00315744 -0.00352026)
(0.119651 0.0022688 -0.00559616)
(0.114039 -0.00203581 0.00595815)
(0.122974 0.000248611 0.00674233)
(0.140958 0.000424615 -0.0043128)
(0.130092 -0.00543936 -0.0242053)
(0.140613 -0.00863841 -0.0204741)
(0.144912 -0.0116164 -0.0106335)
(0.143607 -0.00491793 -0.00158103)
(0.139068 0.000123419 0.00170149)
(0.136269 -0.00141951 0.000445928)
(0.142006 -0.00429854 0.00394492)
(0.14313 -0.00745553 0.00283895)
(0.137377 -0.00745042 0.0028788)
(0.13366 0.00121436 0.00829122)
(0.129976 0.000908657 0.000828877)
(0.130969 -0.00652293 -0.00541783)
(0.148864 -0.0101868 -0.000351505)
(0.144007 -0.00815125 0.00795774)
(0.126917 -0.00581816 0.0126839)
(0.128927 -0.000627349 0.00117212)
(0.129364 0.00314062 -0.00786718)
(0.130034 -0.000414988 -0.00402522)
(0.13046 -0.000183803 0.000377449)
(0.147557 -0.00151828 -0.00288301)
(0.150754 -0.000720938 -0.0122677)
(0.154466 -0.0040753 -0.0169962)
(0.155556 -0.00840403 -0.0141872)
(0.152391 -0.00846894 -0.0106681)
(0.141031 0.00131811 0.00146836)
(0.140961 -0.000351697 0.00318285)
(0.143453 -0.00382873 0.00423165)
(0.144678 -0.00476194 0.00461119)
(0.133735 -0.00399825 -0.00071098)
(0.128724 0.00138068 -0.000346213)
(0.137942 0.00102437 -0.00517463)
(0.14121 -0.00289887 -0.00810138)
(0.150307 -0.0128649 0.00110716)
(0.145139 -0.00451632 0.0100145)
(0.133754 -0.000691962 0.0119896)
(0.12866 0.00377137 0.0023999)
(0.128187 0.00148695 -0.00226094)
(0.13333 -0.00164472 -0.00411485)
(0.138903 -0.000753928 0.00125811)
(0.142115 -0.00219772 -5.98698e-07)
(0.148673 -9.60785e-05 -0.00713569)
(0.159986 -0.000518376 -0.0102439)
(0.165767 -0.00248136 -0.0121749)
(0.16264 -0.00380328 -0.0124577)
(0.148461 -0.000155534 -0.00670391)
(0.14356 0.00326134 0.00206139)
(0.143977 -0.000965127 0.00478634)
(0.138675 -0.001878 0.00376307)
(0.137615 -0.000195998 -0.00188305)
(0.141418 -0.0013751 -0.000655509)
(0.141024 -0.00227536 0.00163305)
(0.141843 -0.00185821 -0.000358407)
(0.14758 -0.0103698 0.00333994)
(0.146927 -0.00253614 0.00789609)
(0.139089 0.00444148 0.00900957)
(0.12626 0.00503505 0.00647075)
(0.125904 0.00209933 0.00498364)
(0.132272 -0.00189034 0.00250387)
(0.136275 -0.000828568 0.00274764)
(0.139872 0.00279945 0.00560187)
(0.146633 0.00202409 -0.00370373)
(0.152112 -0.00308136 -0.00281632)
(0.160669 -0.00319458 -0.00813188)
(0.159569 0.00262411 -0.00932003)
(0.154102 0.00389347 -0.00874682)
(0.150027 0.00429594 -0.00411394)
(0.147086 0.000155701 8.78032e-05)
(0.142894 -0.0034001 0.00380915)
(0.145209 -0.00504558 0.00504171)
(0.154213 -0.00335254 0.00365011)
(0.145983 0.00104851 0.00610731)
(0.141459 0.0036799 0.000371641)
(0.143125 -0.00303145 -0.00283932)
(0.145078 -0.00453801 0.00207784)
(0.142886 0.00536113 0.00667279)
(0.140692 0.0101148 0.00350501)
(0.139266 0.00676601 -0.0012374)
(0.137841 0.00263089 0.00145093)
(0.138854 0.00302107 0.00371517)
(0.140339 0.00430743 0.00731911)
(0.143102 0.00246056 0.00653619)
(0.158073 -0.00273154 0.00520793)
(0.161061 0.000274178 -5.99053e-05)
(0.157577 0.00815489 -0.00764108)
(0.150771 0.00586452 -0.00970427)
(0.149209 0.00246618 -0.00900002)
(0.151724 -0.00178535 -0.00588141)
(0.156581 -0.00320334 -0.00321598)
(0.156943 -0.00671338 0.00192036)
(0.153694 -0.00686931 0.00798871)
(0.151571 -0.00416478 0.00870257)
(0.149929 -0.000743806 0.00501852)
(0.149654 -0.00212343 -0.000781129)
(0.149458 -0.00350352 0.00181873)
(0.152163 0.00454635 0.00719742)
(0.154355 0.00771319 0.0031145)
(0.155699 0.00578833 -0.00568505)
(0.152312 0.00234436 -0.00789295)
(0.149745 0.00365087 -0.00369255)
(0.149678 0.00150682 0.00604382)
(0.152916 -0.00265246 0.010222)
(0.158449 -0.00464151 0.00584594)
(0.162417 0.00134492 0.00114952)
(0.161473 0.00693925 -0.00329906)
(0.159569 0.00871129 -0.00734464)
(0.159512 0.00730214 -0.00757653)
(0.159256 0.00220676 -0.00338935)
(0.159294 -0.00175384 0.000996822)
(0.158771 -0.0030369 -0.00176559)
(0.157093 -0.00236519 -5.61353e-06)
(0.157237 -0.00560769 0.00582047)
(0.157599 -0.00847115 0.00677855)
(0.157653 -0.00872236 0.00320053)
(0.156863 -0.00414274 0.00180481)
(0.156182 0.00240987 0.00508865)
(0.155392 0.00497713 0.00659914)
(0.156143 -0.00129377 0.000319598)
(0.157907 -0.000173828 -0.00738118)
(0.158695 0.0023405 -0.00863291)
(0.158025 0.000277359 -0.00477217)
(0.155252 -0.00687189 0.00666164)
(0.0197625 0.000714253 -0.000401164)
(0.0210228 0.000678088 0.00449677)
(0.0207979 0.000414449 0.00625211)
(0.0199704 0.000184601 0.0052276)
(0.0187505 0.000209904 0.00502298)
(0.0187008 0.000142151 0.00574612)
(0.0205458 4.08625e-05 0.00500972)
(0.0232086 -5.64675e-05 0.00278229)
(0.0262379 -0.000152309 -2.14733e-05)
(0.0282932 -0.000105452 -0.00243893)
(0.0284914 -0.000127374 -0.00292043)
(0.0289578 -0.00031388 -0.00112999)
(0.0288262 -0.000387926 0.000620217)
(0.0255528 -0.000362849 0.000268432)
(0.0206637 -0.000458584 -0.000807225)
(0.0169468 -0.00072244 -0.000272478)
(0.0152138 -0.000735116 0.000153647)
(0.0147791 -0.000348501 -0.00112266)
(0.0154679 -1.1845e-05 -0.00278646)
(0.0173479 0.000404939 -0.00369201)
(0.0243848 0.00129818 -0.00151629)
(0.0254461 0.00157665 0.00444422)
(0.0379912 0.000943459 0.0100271)
(0.0265342 0.000854181 0.00537717)
(0.0270491 0.00086059 0.0053263)
(0.0325956 0.000371536 0.00917271)
(0.0345335 0.000116044 0.00805665)
(0.0401347 -0.000322061 0.00352455)
(0.0432214 -0.000444364 0.00106937)
(0.0542148 -0.000777503 -0.000410181)
(0.0492082 -0.000415917 -0.00368832)
(0.0512713 -0.000864082 -0.00101649)
(0.0512927 -0.000882969 0.000458004)
(0.0445656 -0.000809857 0.000227912)
(0.0333363 -0.00111978 0.00485511)
(0.031631 -0.00149953 -0.000620115)
(0.0222572 -0.000354369 0.00286472)
(0.0211384 9.86375e-05 -0.00163659)
(0.0207008 0.000272564 -0.005441)
(0.02808 0.000913163 -0.00458585)
(0.0618393 0.00246988 0.00167016)
(0.0728689 0.00197313 0.0103242)
(0.0517758 0.0035602 0.0115997)
(0.0512359 0.00279937 0.0102951)
(0.0511006 0.00270335 0.0102015)
(0.0537538 0.00249719 0.0115443)
(0.0592769 0.00167736 0.0105724)
(0.0674515 -0.000779508 0.010261)
(0.0793387 -0.00160784 0.00485197)
(0.0890945 -0.00227527 0.00258107)
(0.0924085 -0.00169729 0.00245091)
(0.0932944 -0.00110154 0.00152634)
(0.0927196 -0.00143548 0.00192955)
(0.0936014 -0.00177664 0.00149685)
(0.072867 -0.00181885 0.00557939)
(0.0741771 -0.00249098 -0.000923469)
(0.0426028 -0.000683517 0.00429861)
(0.039256 0.000573971 -0.00432417)
(0.0383507 0.000824508 -0.0071305)
(0.0385409 0.0013004 -0.0088285)
(0.063943 0.00279223 -0.0089614)
(0.0739109 0.00406121 0.002951)
(0.0835557 0.00504547 0.0115734)
(0.0894623 0.00572808 0.0145314)
(0.0901288 0.00558683 0.014198)
(0.094857 0.0055514 0.0171124)
(0.0981959 0.00576918 0.0197337)
(0.101332 0.00237745 0.0206655)
(0.102168 -0.00133489 0.0154925)
(0.0982155 -0.00153469 0.0090674)
(0.0954694 -0.00168316 0.00997935)
(0.109665 -0.00301861 0.0148475)
(0.114553 -0.00612218 0.0128573)
(0.132162 -0.00555692 -0.000190991)
(0.133692 -0.00377901 0.00554019)
(0.126342 -0.000628979 0.00695595)
(0.0777969 -0.000419178 0.00806555)
(0.0713975 -0.00237212 -0.00253229)
(0.0669992 0.00207975 -0.00938345)
(0.064187 0.00249872 -0.0142294)
(0.0749777 0.00280522 -0.0167141)
(0.0975695 0.00235384 -0.00642991)
(0.0922302 0.00256577 0.00470358)
(0.117654 -0.00232994 0.00643171)
(0.121568 -0.00102558 0.00731524)
(0.125193 -0.00301993 0.00865184)
(0.132274 -0.00386306 0.0105483)
(0.143246 6.89533e-05 0.017764)
(0.127055 -0.000491628 0.0154437)
(0.118125 -0.000578843 0.0115864)
(0.113427 -0.00123309 0.00882807)
(0.1176 -0.00724935 0.0175134)
(0.1234 -0.00520804 0.0166678)
(0.133155 -0.0106985 0.00565685)
(0.138071 -0.00692987 -0.000289032)
(0.13136 -0.00633109 0.00229679)
(0.121587 0.00139501 0.0112046)
(0.102919 -0.00166384 0.00897048)
(0.0857147 -0.00252001 0.00140322)
(0.0795915 0.00281622 -0.0163362)
(0.0972521 0.0036414 -0.0179271)
(0.101877 0.00377083 -0.0124521)
(0.0920678 0.00253371 -0.00662136)
(0.0990449 0.000514703 0.000345845)
(0.107822 0.000854636 0.0030825)
(0.112603 0.000714722 0.00463452)
(0.124301 -0.00206567 0.00645704)
(0.140079 -0.00277032 0.0109162)
(0.137388 0.0014465 0.0144406)
(0.13138 -0.00426564 0.0120346)
(0.13182 -0.00396339 0.00777574)
(0.137718 -0.00754352 0.00438059)
(0.137613 -0.00557321 0.0156162)
(0.13734 -0.01192 0.0015162)
(0.136553 -0.00721745 -0.00202297)
(0.13569 -0.00517786 -0.00152439)
(0.131296 -0.00649929 0.00204728)
(0.14495 0.000562776 0.00466194)
(0.124081 -0.00468786 0.00885189)
(0.103635 -0.00204187 -0.00453856)
(0.108601 0.00264448 -0.0142186)
(0.0987079 0.00509148 -0.0146352)
(0.102305 0.00424494 -0.00525513)
(0.10381 0.00334617 -0.00323656)
(0.116037 -0.00236368 -0.00134303)
(0.110162 -0.0014956 -0.00687908)
(0.124299 -0.0080449 -0.00259485)
(0.127146 -0.00688777 0.000518828)
(0.127233 0.000321157 0.00589949)
(0.135697 -0.00184353 0.00418463)
(0.138642 -0.00745299 -0.00212978)
(0.14023 -0.0120575 -0.00352721)
(0.143777 -0.0114288 0.0149055)
(0.137325 -0.0048332 0.00772909)
(0.132901 -0.00727322 -0.00646807)
(0.136637 -0.00347926 -0.00766872)
(0.127969 -0.00562375 -0.00765857)
(0.136676 -0.00487623 -0.00210606)
(0.151343 -0.00186275 0.00714059)
(0.126639 -0.00096947 -0.00535227)
(0.113559 0.00129262 -0.0151691)
(0.110367 0.00270556 -0.0158117)
(0.116352 0.00307352 -0.0111208)
(0.124432 0.00529758 -0.00102195)
(0.122539 0.0042162 -0.00160446)
(0.121884 0.000675039 -0.00158282)
(0.130289 -0.00387826 -0.00122388)
(0.128691 -0.00341724 -0.00687412)
(0.133085 -0.000720502 -0.00393694)
(0.139195 -0.00899566 -0.00276829)
(0.136031 -0.0111324 -0.00691204)
(0.14228 -0.0137249 -0.00679168)
(0.139147 -0.0132277 0.00571155)
(0.140882 -0.00502495 0.00935602)
(0.131009 -0.000252129 -0.00700657)
(0.137244 2.26906e-05 -0.00684408)
(0.140796 -0.0013011 -0.00883108)
(0.138527 -0.0060478 -0.00941033)
(0.148437 -0.00276774 -0.00695053)
(0.145258 -0.00177655 -0.00137598)
(0.151905 0.00456233 -0.0116913)
(0.138054 4.75122e-05 -0.0129055)
(0.132032 -0.000856704 -0.0129432)
(0.116039 0.0116851 -0.00411759)
(0.119699 0.0124936 0.00230471)
(0.131325 0.00560678 0.00695713)
(0.128273 0.00225314 0.00379297)
(0.129042 0.000354964 -0.00724479)
(0.135727 -0.00704102 -0.00920352)
(0.145583 -0.00953487 -0.00545198)
(0.145631 -0.00917579 -0.0056407)
(0.136752 -0.0106139 -0.00804985)
(0.141186 -0.0100503 -0.000751076)
(0.143969 -0.00340982 0.00785929)
(0.138175 0.00746657 0.00938068)
(0.133956 0.000953058 -5.55964e-05)
(0.138971 -0.00232225 -0.00556495)
(0.145137 2.23941e-05 -0.00824655)
(0.148154 -0.000841698 -0.00621377)
(0.155528 -0.00155457 -0.000595778)
(0.162086 -0.00220295 0.000823918)
(0.161372 0.00111442 -0.00486752)
(0.146446 0.00794725 -0.00475122)
(0.133335 0.00793862 -0.00387173)
(0.142557 0.00254529 -0.00325403)
(0.13402 0.00540541 0.0050975)
(0.133686 0.00641739 0.00998254)
(0.137079 0.00358334 0.000257901)
(0.142212 -0.00285551 -0.00391825)
(0.148723 -0.00667512 0.00132103)
(0.155617 -0.007095 0.00164901)
(0.151451 -0.00751883 -0.00413645)
(0.148019 -0.00372944 -0.00162892)
(0.15224 -0.00150249 0.00465709)
(0.144231 0.00615599 0.00816977)
(0.144013 0.00328648 0.00375295)
(0.139718 0.00169512 -0.00105053)
(0.145113 0.00165984 -0.00357337)
(0.148895 0.00395219 0.00406724)
(0.160584 -0.00665501 0.00725886)
(0.166449 -0.00798113 0.00319747)
(0.162213 -0.00178281 0.000226663)
(0.155789 0.00848197 -0.00493887)
(0.152037 0.00838527 -0.00704579)
(0.149998 0.00429614 -0.0076317)
(0.145559 -0.000200936 -0.00814036)
(0.142792 0.00076308 -0.00288188)
(0.145766 0.00233212 0.00549676)
(0.149417 -0.00185172 0.00888104)
(0.151119 -0.00368762 0.0103447)
(0.15356 -0.00320253 0.00876881)
(0.155618 -0.0052997 0.00346551)
(0.155877 -0.00290397 0.00101968)
(0.15252 -0.000582648 0.00152541)
(0.15597 -0.000768546 0.00289521)
(0.157555 -0.00199683 -0.000554094)
(0.156194 -0.00176548 -0.00337548)
(0.15229 3.07207e-05 0.00309506)
(0.151812 -0.0014024 0.00361148)
(0.158753 -0.00677025 0.00307309)
(0.164688 -0.00364194 0.0004494)
(0.166392 -0.00186049 6.82486e-05)
(0.169053 0.00350864 -0.000626207)
(0.168732 0.00529116 -0.00521986)
(0.16582 0.00595008 -0.00659095)
(0.159186 0.00625215 -0.00373499)
(0.154563 0.0019824 -0.000998523)
(0.153272 -0.000197514 -0.00206376)
(0.153662 -0.00105236 -0.00079219)
(0.156918 -0.00156564 0.00170375)
(0.156681 0.00132638 -0.000473136)
(0.155979 0.000472861 -0.00109749)
(0.1568 0.00195682 0.000711056)
(0.157606 0.00353801 0.00121168)
(0.159075 0.00457553 0.000273705)
(0.160887 0.00112835 -0.00101798)
(0.161468 -0.00334739 -0.00372483)
(0.157414 0.000526346 -0.00534165)
(0.155877 0.00223369 -0.0030112)
(0.155992 -0.00129059 0.00413063)
(0.0180471 -0.000915782 -0.00182228)
(0.0173931 -0.000483573 -0.00158408)
(0.0165192 -0.000109429 -0.00168989)
(0.0170398 2.89669e-05 -0.00192634)
(0.0180718 6.82037e-05 -0.00175656)
(0.0188398 4.28451e-05 -0.00135864)
(0.0197279 9.85981e-07 -0.00129153)
(0.0211143 -8.52213e-05 -0.00103434)
(0.0233416 -0.000144629 0.000516269)
(0.0249499 -5.33252e-05 0.00299298)
(0.0232614 6.20349e-05 0.00509029)
(0.0187275 3.38578e-05 0.00590645)
(0.0155792 9.51272e-05 0.00619446)
(0.0145022 0.000333117 0.0064252)
(0.0152822 0.000477437 0.00557931)
(0.0170104 0.000559001 0.00266964)
(0.0174699 0.000485386 -0.00107261)
(0.0173422 0.000164369 -0.00355153)
(0.0169899 -0.000158451 -0.00403861)
(0.0172882 -0.000677231 -0.00294049)
(0.0301055 -0.00178258 -0.00205861)
(0.0277374 -0.000534119 -0.00186322)
(0.0273036 -0.000148395 -0.00217342)
(0.0291685 0.000132327 -0.00262311)
(0.0301719 0.000151569 -0.0024516)
(0.0317013 7.47115e-05 -0.00204882)
(0.0344896 -0.000135704 -0.00196047)
(0.036047 -0.000289431 -0.00154342)
(0.0414944 -0.000469119 0.00179617)
(0.0434371 -0.000310641 0.00405422)
(0.042831 4.60449e-05 0.00735295)
(0.0323378 0.000200466 0.00891145)
(0.0264326 0.000549905 0.00940604)
(0.0244668 0.000985384 0.00933395)
(0.0263833 0.00110758 0.00666132)
(0.0286132 0.00111904 0.00367626)
(0.0317145 0.000584581 -0.00326367)
(0.0322451 0.000159711 -0.00511148)
(0.0319029 -0.000529116 -0.00567211)
(0.0312165 -0.00150498 -0.00375322)
(0.0514036 -0.00295647 -0.00151246)
(0.0481057 -0.00157936 -0.0012121)
(0.0464613 2.72832e-05 -0.00156408)
(0.050275 0.000518904 -0.00256908)
(0.0523389 0.000508015 -0.00255666)
(0.0554789 0.000256619 -0.00243729)
(0.0593466 -0.000176789 -0.00276514)
(0.0641064 -0.000843901 -0.00259676)
(0.0717451 -0.00180507 -4.51824e-05)
(0.0759126 -0.00171909 0.00235578)
(0.0813251 -0.000836543 0.00727606)
(0.0781384 0.000329022 0.0107999)
(0.0639388 0.0011652 0.0118701)
(0.0527283 0.00238009 0.0136426)
(0.0473535 0.00286856 0.0138024)
(0.0506176 0.0022681 0.0089752)
(0.0631491 0.000556727 -0.000234208)
(0.0674466 -0.000271136 -0.00397204)
(0.067766 -0.00202011 -0.00835659)
(0.0636704 -0.0031563 -0.00625451)
(0.0963648 -0.0042406 -0.0043164)
(0.0725231 -0.00159106 -0.00100782)
(0.065702 0.00157123 0.000867759)
(0.0708672 0.00268173 0.00155767)
(0.0762068 0.0022438 0.00210396)
(0.0801845 0.00180366 0.00217265)
(0.0845008 0.00118743 0.0021173)
(0.0883785 0.000570588 0.00304177)
(0.0993103 -0.00142208 0.0030718)
(0.103202 -0.00246041 0.00255531)
(0.105595 -0.00188701 0.00398376)
(0.112077 -0.0009885 0.00815)
(0.11366 0.00117538 0.0115139)
(0.108171 0.00286812 0.0131366)
(0.102698 0.00520793 0.0175063)
(0.0953822 0.0037999 0.0217592)
(0.0963158 -0.00118919 0.0186358)
(0.104421 -0.00487083 0.0147925)
(0.117148 -0.00528447 0.00757305)
(0.123493 -0.00478803 -0.00506192)
(0.129565 -0.00313223 -0.00377483)
(0.0835066 0.00157073 -0.00177084)
(0.0758987 0.00362014 -0.000400871)
(0.0773793 0.00580237 0.0027208)
(0.08621 0.00492391 0.00580405)
(0.0905062 0.0045601 0.00692289)
(0.0927469 0.00487377 0.00784777)
(0.102347 0.00420145 0.0129133)
(0.107476 0.00349951 0.0137317)
(0.11216 0.0011195 0.00913069)
(0.113973 0.00107813 0.00555971)
(0.117451 -5.67216e-05 0.00607731)
(0.122059 -0.00151811 0.00751493)
(0.126445 0.0023143 0.0116459)
(0.124975 0.00279381 0.0120754)
(0.128409 0.0027778 0.0167001)
(0.128034 -0.0022044 0.019064)
(0.134149 -0.00726006 0.0168593)
(0.131504 -0.0100817 0.0195607)
(0.142557 -0.00934339 0.00669703)
(0.147851 -0.00465537 -0.000490565)
(0.102947 0.00375949 -0.0027508)
(0.0886472 0.00579852 -0.00300853)
(0.0835844 0.00890532 -0.00204127)
(0.0926691 0.0075291 0.00281808)
(0.0996685 0.00696639 0.00556205)
(0.102789 0.00780148 0.00693641)
(0.109954 0.00862733 0.0104211)
(0.121633 0.00807384 0.0172108)
(0.123583 0.0068388 0.0163267)
(0.120844 0.00316373 0.00804777)
(0.123669 0.00354767 0.00703903)
(0.128803 0.00100201 0.00896568)
(0.127203 0.00187691 0.00451795)
(0.126603 0.00109094 0.001105)
(0.127595 -0.00102572 0.00509602)
(0.13119 -0.00525725 0.00674678)
(0.138552 -0.00771675 0.00493739)
(0.142778 -0.00909254 0.014395)
(0.149923 -0.0116454 0.00722015)
(0.15053 -0.00244616 0.000164007)
(0.133849 0.00246741 -0.00308687)
(0.106225 0.00611229 -0.00379304)
(0.0961575 0.0113711 -0.00594439)
(0.0974068 0.00746068 -0.00545926)
(0.0987485 0.00527544 -0.00500551)
(0.104589 0.00670923 -0.00179478)
(0.112456 0.00999356 0.00260696)
(0.121599 0.010125 0.00963297)
(0.125153 0.00806821 0.00914395)
(0.126417 0.00225256 0.00220258)
(0.128502 0.00122863 0.00364706)
(0.133642 0.00377117 0.0118506)
(0.127281 0.00591527 0.00321813)
(0.125665 -0.00267727 -0.0152445)
(0.129591 -0.00324363 -0.00754931)
(0.136916 -0.00632634 -0.00342704)
(0.139951 -0.00939727 -0.00559137)
(0.141877 -0.00757805 0.00117806)
(0.146604 -0.0132473 0.00699521)
(0.156738 -0.00501523 0.00133303)
(0.142776 0.00210367 -0.000856244)
(0.115229 0.00819642 -0.00318338)
(0.105762 0.00983274 -0.00988883)
(0.111769 0.00649404 -0.0120287)
(0.119469 0.00108478 -0.0113054)
(0.112012 0.00280069 -0.00796129)
(0.109939 0.00980611 -0.00557181)
(0.116975 0.00920784 -0.00357914)
(0.122057 0.00642565 -0.00325457)
(0.121618 0.00163228 -0.00346954)
(0.119299 0.00167578 0.00109069)
(0.117882 0.0108781 -0.00138339)
(0.120829 0.00774237 -0.0122332)
(0.127957 -0.00432318 -0.0185027)
(0.130685 -0.00665516 -0.0190424)
(0.137393 -0.00815252 -0.0140951)
(0.14359 -0.00972221 -0.0137405)
(0.145269 -0.00951043 -0.00759881)
(0.155437 -0.0140599 0.0016517)
(0.154779 -0.0045843 0.0048335)
(0.151632 0.00103313 0.00274683)
(0.144668 0.00392768 0.000578718)
(0.125469 0.002471 0.000963629)
(0.126452 -0.00193172 -0.000125434)
(0.131231 -0.000917018 -0.000559551)
(0.122771 0.00418774 -0.00615302)
(0.119187 0.00431566 -0.0101559)
(0.122686 0.0030927 -0.00916414)
(0.124696 0.00317944 -0.0060802)
(0.121233 -5.72486e-05 -0.000441782)
(0.116564 0.00100439 -0.00169635)
(0.121759 0.0104151 -0.00133066)
(0.132542 0.00879022 0.00574507)
(0.134807 0.00375419 0.00598662)
(0.13477 -0.00299551 -0.00657169)
(0.139517 -0.00479812 -0.0168791)
(0.145932 -0.00874184 -0.0172521)
(0.15349 -0.0114668 -0.0119212)
(0.160736 -0.0139984 9.93757e-05)
(0.161664 -0.00584794 0.00728627)
(0.163094 -0.00228463 0.00279456)
(0.166146 0.00140689 0.00212946)
(0.145104 0.00640952 0.00175233)
(0.134228 0.00510139 0.000506364)
(0.129118 0.00231835 0.00405972)
(0.134047 0.00183291 0.00719328)
(0.141302 -0.000291916 -0.00123436)
(0.138663 -0.00263959 -0.00850423)
(0.132597 -0.00161624 -0.00358925)
(0.134045 -0.00125871 -0.000644397)
(0.136605 -0.000565992 0.000234181)
(0.139521 0.00438294 0.00343308)
(0.141479 0.00594304 0.00760506)
(0.142875 0.00395859 0.0120969)
(0.145283 0.000447792 0.00486024)
(0.149786 -0.00410735 -0.00253361)
(0.153328 -0.00813548 -0.00752716)
(0.155299 -0.0103206 -0.00784005)
(0.161287 -0.0113371 0.00118395)
(0.163172 -0.00740101 0.00429102)
(0.164358 -1.4421e-05 -0.000933418)
(0.160018 0.00387609 -0.00177553)
(0.147886 0.00937999 -0.000934146)
(0.144321 0.00667091 -0.00387205)
(0.145875 0.00213948 -0.00345535)
(0.142135 0.00196739 0.00153496)
(0.141348 0.00442718 0.00372167)
(0.145257 0.00253296 0.00264186)
(0.145017 0.00110442 0.00111462)
(0.143123 0.00208745 -0.000583609)
(0.145134 0.00233086 -0.00188748)
(0.145503 0.00136742 -0.00030744)
(0.143519 0.00380393 0.00206424)
(0.14742 0.0039753 0.000182436)
(0.155936 -0.00144164 -0.00477084)
(0.155887 -0.00207762 -0.00280676)
(0.154823 -0.00375439 0.00461719)
(0.157701 -0.00697097 0.000669222)
(0.163009 -0.0114581 -0.000682146)
(0.157606 -0.00601432 -0.00185902)
(0.161387 0.00164129 0.00137648)
(0.164924 0.00327248 0.00118772)
(0.169007 0.0039164 -0.00253967)
(0.166949 0.00468455 -0.00585308)
(0.164106 0.005898 -0.00319889)
(0.159855 0.00376578 -0.000401295)
(0.152728 0.00148625 -0.000135726)
(0.150342 0.0029928 0.00059521)
(0.153257 0.00588872 0.000981764)
(0.154594 0.00559482 -0.00115694)
(0.153118 0.00325003 -0.00186784)
(0.152227 0.00369413 -0.000177418)
(0.153083 0.00478194 0.000257777)
(0.156469 0.00467539 -0.00132817)
(0.158412 0.00149718 -0.00295091)
(0.156279 -0.00217963 -0.00412218)
(0.155419 -0.00351546 -0.00395622)
(0.155666 -0.00487336 -0.00375042)
(0.156447 -0.00801569 -0.00361924)
(0.0156527 -0.000483026 0.00317647)
(0.01483 -0.000186715 0.001489)
(0.0141099 -5.08098e-05 -0.000613746)
(0.0149294 -4.38565e-05 -0.0018741)
(0.0162465 -3.75449e-05 -0.00148431)
(0.0165453 -5.62479e-05 -0.000471553)
(0.0162006 -4.7179e-05 -0.0002272)
(0.0159743 -4.05814e-05 -0.000155034)
(0.0160724 4.62305e-05 0.000842146)
(0.0157248 0.000235333 0.0025288)
(0.0144747 0.000336939 0.0039154)
(0.0136128 0.000275095 0.00420596)
(0.0140541 0.00025629 0.00327703)
(0.0149853 0.000447 0.00157751)
(0.015957 0.000583569 -0.00019377)
(0.0169191 0.000409354 -0.00168447)
(0.0168129 3.18138e-05 -0.00227004)
(0.0160181 -0.000414391 -0.00158096)
(0.0156773 -0.000674814 0.000256784)
(0.0156778 -0.000771356 0.00261479)
(0.0253414 -0.000705074 0.00322495)
(0.0244003 -0.000365199 0.00161246)
(0.0237051 -0.000109867 -0.00112889)
(0.0251242 -0.000114723 -0.00263599)
(0.0271729 -0.000123658 -0.00204474)
(0.027997 -0.00016016 -0.000788604)
(0.0280653 -0.000138986 -0.000379205)
(0.0281046 -0.000111735 -4.32697e-05)
(0.0282805 0.000229272 0.00251371)
(0.027889 0.00050222 0.00423908)
(0.0251419 0.000816205 0.00693146)
(0.0238697 0.000746711 0.0067967)
(0.0237168 0.000845564 0.00417634)
(0.0246525 0.0010858 0.00259026)
(0.0270267 0.00122264 2.662e-05)
(0.0310474 0.00036477 -0.00237196)
(0.0317801 -0.00020141 -0.00265171)
(0.0299455 -0.00128925 -0.00123923)
(0.0288464 -0.00152409 0.000424414)
(0.027244 -0.00158323 0.00342758)
(0.0461855 -0.00200357 0.00504134)
(0.0429938 -0.000733129 0.00219223)
(0.0420062 -0.000193417 -0.00140542)
(0.0455314 -0.000292448 -0.00363838)
(0.0486765 -0.00045236 -0.0023098)
(0.0498873 -0.000601413 -0.00155719)
(0.0524602 -0.000664015 -0.00115168)
(0.0536373 -0.000607167 -0.000781669)
(0.0548546 3.07714e-05 0.0021362)
(0.0546499 0.00103433 0.00650456)
(0.0525854 0.00207171 0.0107869)
(0.0465805 0.00228808 0.011474)
(0.0427442 0.00247472 0.0088468)
(0.0447565 0.00306016 0.00564405)
(0.0517297 0.00244019 0.00242199)
(0.0577844 0.00122677 0.000824732)
(0.0691621 -0.00176269 -0.00041501)
(0.0692595 -0.00266657 -0.00113034)
(0.0616002 -0.00361268 -0.000231515)
(0.0522061 -0.00360746 0.00369458)
(0.074005 -0.00196063 0.00530211)
(0.0670408 9.13527e-05 0.00131712)
(0.0652709 0.000508403 -0.00141693)
(0.0674852 0.000388462 -0.00440824)
(0.070422 0.00018028 -0.00316015)
(0.0738877 -0.000871912 -0.000589908)
(0.0750769 -0.00142726 -0.00137466)
(0.0825298 -0.00195723 -0.00196649)
(0.0870225 -0.00161246 -0.00166222)
(0.092461 -0.000549443 -0.000329051)
(0.0923622 0.000871661 0.00325651)
(0.0901984 0.00346194 0.0124406)
(0.0844004 0.00516234 0.0157861)
(0.0782199 0.00604917 0.0153421)
(0.0789554 0.00597812 0.0163083)
(0.0932135 0.0011375 0.0177889)
(0.107794 -0.00325092 0.0187294)
(0.115665 -0.00435362 0.0174505)
(0.122243 -0.00404263 0.00812171)
(0.0932499 -0.00502223 0.00502924)
(0.0948069 0.000164427 0.00555601)
(0.0834803 0.00263999 0.000192677)
(0.0802337 0.00341112 -0.00307551)
(0.0777165 0.00261178 -0.00530491)
(0.0812397 0.00201632 -0.00118247)
(0.0829531 0.00148769 0.00129126)
(0.0839306 0.00093256 0.00114481)
(0.090549 0.000295093 6.32135e-05)
(0.0987854 -4.46848e-05 8.22057e-05)
(0.104106 -0.000324937 -0.00039085)
(0.113425 0.00131499 0.00120049)
(0.109781 0.0014384 0.00454621)
(0.109755 0.00408492 0.012056)
(0.108651 0.00663313 0.0143995)
(0.10833 0.00646094 0.0149862)
(0.118562 0.00155395 0.0186552)
(0.131263 -0.00305525 0.0164582)
(0.131907 -0.00542282 0.018456)
(0.142683 -0.00337951 0.0133986)
(0.136956 -0.00246189 0.00836169)
(0.113171 0.00302253 0.00737682)
(0.0978364 0.00533419 0.00284184)
(0.0942195 0.00707741 -0.00198342)
(0.0871703 0.00660341 -0.00820838)
(0.0877871 0.00478093 -0.00254309)
(0.0892379 0.00392483 0.00144341)
(0.0907316 0.00490265 0.00237016)
(0.0962516 0.00612311 -0.000918596)
(0.106158 0.00633939 0.00284055)
(0.114388 0.00346592 0.00353316)
(0.12247 0.00222051 0.00322462)
(0.126172 0.00181765 0.00516417)
(0.122873 0.00158413 0.00583459)
(0.118822 0.00630812 0.00421959)
(0.121964 0.00552003 0.00367423)
(0.123597 0.00342298 0.00725195)
(0.131694 -0.00216302 0.00384262)
(0.132259 -0.0048258 0.00720325)
(0.133593 -0.00599576 0.0106971)
(0.147605 0.00011164 0.00674233)
(0.137816 0.00461402 0.00622454)
(0.110384 0.00341895 0.00659906)
(0.101017 0.00845254 -0.00154667)
(0.0977272 0.00955881 -0.0109657)
(0.0974236 0.00585671 -0.00628551)
(0.0946936 0.00358825 0.000468149)
(0.0953329 0.00850796 -0.000296781)
(0.100237 0.011887 -0.00347367)
(0.110077 0.0132476 0.00138865)