# Probe 0 (1 0.5 0)
#       Probe             0
#        Time
   1.0001e+06             (1.8514e-05 -7.42684e-07 0)
   1.0002e+06             (1.85681e-05 -6.55124e-07 0)
   1.0003e+06             (1.86216e-05 -5.67219e-07 0)
   1.0004e+06             (1.86747e-05 -4.79004e-07 0)
   1.0005e+06             (1.87272e-05 -3.90473e-07 0)
   1.0006e+06             (1.87791e-05 -3.01635e-07 0)
   1.0007e+06             (1.88306e-05 -2.12516e-07 0)
   1.0008e+06             (1.88814e-05 -1.23045e-07 0)
   1.0009e+06             (1.89306e-05 -3.34117e-08 0)
    1.001e+06             (1.89783e-05 5.6552e-08 0)
   1.0011e+06             (1.9025e-05 1.46741e-07 0)
   1.0012e+06             (1.90707e-05 2.37264e-07 0)
   1.0013e+06             (1.91156e-05 3.2802e-07 0)
   1.0014e+06             (1.91606e-05 4.18995e-07 0)
   1.0015e+06             (1.92057e-05 5.10113e-07 0)
   1.0016e+06             (1.92506e-05 6.01406e-07 0)
   1.0017e+06             (1.92952e-05 6.92881e-07 0)
   1.0018e+06             (1.93395e-05 7.84516e-07 0)
   1.0019e+06             (1.93833e-05 8.76319e-07 0)
    1.002e+06             (1.94267e-05 9.68226e-07 0)
   1.0021e+06             (1.94696e-05 1.06025e-06 0)
   1.0022e+06             (1.9512e-05 1.15233e-06 0)
   1.0023e+06             (1.9554e-05 1.24441e-06 0)
   1.0024e+06             (1.95955e-05 1.33652e-06 0)
   1.0025e+06             (1.96365e-05 1.42867e-06 0)
   1.0026e+06             (1.9677e-05 1.52085e-06 0)
   1.0027e+06             (1.97172e-05 1.613e-06 0)
   1.0028e+06             (1.97569e-05 1.70513e-06 0)
   1.0029e+06             (1.97962e-05 1.79722e-06 0)
    1.003e+06             (1.98351e-05 1.8893e-06 0)
   1.0031e+06             (1.98735e-05 1.98136e-06 0)
   1.0032e+06             (1.99115e-05 2.07335e-06 0)
   1.0033e+06             (1.9949e-05 2.16534e-06 0)
   1.0034e+06             (1.99861e-05 2.25729e-06 0)
   1.0035e+06             (2.00227e-05 2.34922e-06 0)
   1.0036e+06             (2.00587e-05 2.44105e-06 0)
   1.0037e+06             (2.00943e-05 2.53277e-06 0)
   1.0038e+06             (2.01294e-05 2.62439e-06 0)
   1.0039e+06             (2.0164e-05 2.71588e-06 0)
    1.004e+06             (2.01982e-05 2.80723e-06 0)
   1.0041e+06             (2.02319e-05 2.89844e-06 0)
   1.0042e+06             (2.02652e-05 2.98948e-06 0)
   1.0043e+06             (2.02981e-05 3.08035e-06 0)
   1.0044e+06             (2.03306e-05 3.17105e-06 0)
   1.0045e+06             (2.03626e-05 3.26161e-06 0)
   1.0046e+06             (2.03941e-05 3.35201e-06 0)
   1.0047e+06             (2.04252e-05 3.44227e-06 0)
   1.0048e+06             (2.04559e-05 3.53238e-06 0)
   1.0049e+06             (2.04861e-05 3.62225e-06 0)
    1.005e+06             (2.05159e-05 3.71192e-06 0)
   1.0051e+06             (2.05451e-05 3.80136e-06 0)
   1.0052e+06             (2.0574e-05 3.89057e-06 0)
   1.0053e+06             (2.06023e-05 3.97954e-06 0)
   1.0054e+06             (2.06303e-05 4.06823e-06 0)
   1.0055e+06             (2.06578e-05 4.15668e-06 0)
   1.0056e+06             (2.06848e-05 4.24485e-06 0)
   1.0057e+06             (2.07114e-05 4.33274e-06 0)
   1.0058e+06             (2.07376e-05 4.42036e-06 0)
   1.0059e+06             (2.07634e-05 4.50768e-06 0)
    1.006e+06             (2.07887e-05 4.59476e-06 0)
   1.0061e+06             (2.08135e-05 4.68156e-06 0)
   1.0062e+06             (2.08379e-05 4.76806e-06 0)
   1.0063e+06             (2.08619e-05 4.85424e-06 0)
   1.0064e+06             (2.08855e-05 4.94012e-06 0)
   1.0065e+06             (2.09085e-05 5.02569e-06 0)
   1.0066e+06             (2.09311e-05 5.11091e-06 0)
   1.0067e+06             (2.09533e-05 5.19578e-06 0)
   1.0068e+06             (2.09751e-05 5.28031e-06 0)
   1.0069e+06             (2.09963e-05 5.36449e-06 0)
    1.007e+06             (2.10172e-05 5.44828e-06 0)
   1.0071e+06             (2.10376e-05 5.53174e-06 0)
   1.0072e+06             (2.10575e-05 5.61483e-06 0)
   1.0073e+06             (2.1077e-05 5.69757e-06 0)
   1.0074e+06             (2.1096e-05 5.77996e-06 0)
   1.0075e+06             (2.11147e-05 5.86197e-06 0)
   1.0076e+06             (2.11328e-05 5.94358e-06 0)
   1.0077e+06             (2.11505e-05 6.02481e-06 0)
   1.0078e+06             (2.11677e-05 6.10565e-06 0)
   1.0079e+06             (2.11845e-05 6.1861e-06 0)
    1.008e+06             (2.12008e-05 6.26611e-06 0)
   1.0081e+06             (2.12167e-05 6.34571e-06 0)
   1.0082e+06             (2.12321e-05 6.42491e-06 0)
   1.0083e+06             (2.12471e-05 6.5037e-06 0)
   1.0084e+06             (2.12616e-05 6.58206e-06 0)
   1.0085e+06             (2.12757e-05 6.66003e-06 0)
   1.0086e+06             (2.12893e-05 6.73758e-06 0)
   1.0087e+06             (2.13024e-05 6.8147e-06 0)
   1.0088e+06             (2.13151e-05 6.89139e-06 0)
   1.0089e+06             (2.13273e-05 6.96764e-06 0)
    1.009e+06             (2.13391e-05 7.04346e-06 0)
   1.0091e+06             (2.13504e-05 7.11882e-06 0)
   1.0092e+06             (2.13612e-05 7.19372e-06 0)
   1.0093e+06             (2.13716e-05 7.26817e-06 0)
   1.0094e+06             (2.13816e-05 7.3422e-06 0)
   1.0095e+06             (2.1391e-05 7.41577e-06 0)
   1.0096e+06             (2.14001e-05 7.48887e-06 0)
   1.0097e+06             (2.14086e-05 7.56153e-06 0)
   1.0098e+06             (2.14167e-05 7.63372e-06 0)
   1.0099e+06             (2.14243e-05 7.70546e-06 0)
     1.01e+06             (2.14315e-05 7.77673e-06 0)
   1.0101e+06             (2.14382e-05 7.84755e-06 0)
   1.0102e+06             (2.14445e-05 7.91791e-06 0)
   1.0103e+06             (2.14503e-05 7.98778e-06 0)
   1.0104e+06             (2.14556e-05 8.05718e-06 0)
   1.0105e+06             (2.14605e-05 8.12612e-06 0)
   1.0106e+06             (2.14649e-05 8.19459e-06 0)
   1.0107e+06             (2.14689e-05 8.26253e-06 0)
   1.0108e+06             (2.14724e-05 8.33003e-06 0)
   1.0109e+06             (2.14754e-05 8.39704e-06 0)
    1.011e+06             (2.1478e-05 8.46357e-06 0)
   1.0111e+06             (2.14801e-05 8.52964e-06 0)
   1.0112e+06             (2.14818e-05 8.5952e-06 0)
   1.0113e+06             (2.1483e-05 8.66027e-06 0)
   1.0114e+06             (2.14838e-05 8.72487e-06 0)
   1.0115e+06             (2.14841e-05 8.78897e-06 0)
   1.0116e+06             (2.1484e-05 8.85258e-06 0)
   1.0117e+06             (2.14834e-05 8.91569e-06 0)
   1.0118e+06             (2.14823e-05 8.97832e-06 0)
   1.0119e+06             (2.14808e-05 9.04046e-06 0)
    1.012e+06             (2.14788e-05 9.10211e-06 0)
   1.0121e+06             (2.14764e-05 9.16326e-06 0)
   1.0122e+06             (2.14736e-05 9.22395e-06 0)
   1.0123e+06             (2.14703e-05 9.28409e-06 0)
   1.0124e+06             (2.14665e-05 9.34375e-06 0)
   1.0125e+06             (2.14623e-05 9.40291e-06 0)
   1.0126e+06             (2.14577e-05 9.46155e-06 0)
   1.0127e+06             (2.14525e-05 9.5197e-06 0)
   1.0128e+06             (2.1447e-05 9.57734e-06 0)
   1.0129e+06             (2.1441e-05 9.6345e-06 0)
    1.013e+06             (2.14346e-05 9.69116e-06 0)
   1.0131e+06             (2.14277e-05 9.74731e-06 0)
   1.0132e+06             (2.14204e-05 9.80297e-06 0)
   1.0133e+06             (2.14127e-05 9.85811e-06 0)
   1.0134e+06             (2.14045e-05 9.91275e-06 0)
   1.0135e+06             (2.13959e-05 9.9669e-06 0)
   1.0136e+06             (2.13868e-05 1.00205e-05 0)
   1.0137e+06             (2.13773e-05 1.00737e-05 0)
   1.0138e+06             (2.13674e-05 1.01263e-05 0)
   1.0139e+06             (2.13569e-05 1.01783e-05 0)
    1.014e+06             (2.13462e-05 1.02299e-05 0)
   1.0141e+06             (2.13349e-05 1.0281e-05 0)
   1.0142e+06             (2.13233e-05 1.03315e-05 0)
   1.0143e+06             (2.13112e-05 1.03816e-05 0)
   1.0144e+06             (2.12986e-05 1.04311e-05 0)
   1.0145e+06             (2.12857e-05 1.04801e-05 0)
   1.0146e+06             (2.12723e-05 1.05287e-05 0)
   1.0147e+06             (2.12585e-05 1.05767e-05 0)
   1.0148e+06             (2.12442e-05 1.06242e-05 0)
   1.0149e+06             (2.12296e-05 1.06711e-05 0)
    1.015e+06             (2.12145e-05 1.07176e-05 0)
   1.0151e+06             (2.1199e-05 1.07636e-05 0)
   1.0152e+06             (2.11831e-05 1.0809e-05 0)
   1.0153e+06             (2.11667e-05 1.08539e-05 0)
   1.0154e+06             (2.115e-05 1.08983e-05 0)
   1.0155e+06             (2.11328e-05 1.09422e-05 0)
   1.0156e+06             (2.11152e-05 1.09855e-05 0)
   1.0157e+06             (2.10972e-05 1.10284e-05 0)
   1.0158e+06             (2.10788e-05 1.10707e-05 0)
   1.0159e+06             (2.10599e-05 1.11125e-05 0)
    1.016e+06             (2.10407e-05 1.11538e-05 0)
   1.0161e+06             (2.1021e-05 1.11946e-05 0)
   1.0162e+06             (2.1001e-05 1.12348e-05 0)
   1.0163e+06             (2.09805e-05 1.12746e-05 0)
   1.0164e+06             (2.09596e-05 1.13138e-05 0)
   1.0165e+06             (2.09384e-05 1.13525e-05 0)
   1.0166e+06             (2.09167e-05 1.13907e-05 0)
   1.0167e+06             (2.08946e-05 1.14283e-05 0)
   1.0168e+06             (2.08722e-05 1.14654e-05 0)
   1.0169e+06             (2.08493e-05 1.1502e-05 0)
    1.017e+06             (2.0826e-05 1.15381e-05 0)
   1.0171e+06             (2.08023e-05 1.15737e-05 0)
   1.0172e+06             (2.07782e-05 1.16087e-05 0)
   1.0173e+06             (2.07538e-05 1.16432e-05 0)
   1.0174e+06             (2.07289e-05 1.16772e-05 0)
   1.0175e+06             (2.07037e-05 1.17106e-05 0)
   1.0176e+06             (2.0678e-05 1.17436e-05 0)
   1.0177e+06             (2.0652e-05 1.1776e-05 0)
   1.0178e+06             (2.06256e-05 1.18079e-05 0)
   1.0179e+06             (2.05988e-05 1.18393e-05 0)
    1.018e+06             (2.05716e-05 1.18701e-05 0)
   1.0181e+06             (2.0544e-05 1.19004e-05 0)
   1.0182e+06             (2.0516e-05 1.19302e-05 0)
   1.0183e+06             (2.04877e-05 1.19594e-05 0)
   1.0184e+06             (2.0459e-05 1.19882e-05 0)
   1.0185e+06             (2.04298e-05 1.20164e-05 0)
   1.0186e+06             (2.04003e-05 1.2044e-05 0)
   1.0187e+06             (2.03705e-05 1.20712e-05 0)
   1.0188e+06             (2.03403e-05 1.20978e-05 0)
   1.0189e+06             (2.03096e-05 1.21238e-05 0)
    1.019e+06             (2.02787e-05 1.21494e-05 0)
   1.0191e+06             (2.02473e-05 1.21744e-05 0)
   1.0192e+06             (2.02156e-05 1.21989e-05 0)
   1.0193e+06             (2.01835e-05 1.22228e-05 0)
   1.0194e+06             (2.0151e-05 1.22462e-05 0)
   1.0195e+06             (2.01182e-05 1.22691e-05 0)
   1.0196e+06             (2.0085e-05 1.22915e-05 0)
   1.0197e+06             (2.00514e-05 1.23133e-05 0)
   1.0198e+06             (2.00175e-05 1.23346e-05 0)
   1.0199e+06             (1.99832e-05 1.23554e-05 0)
     1.02e+06             (1.99486e-05 1.23756e-05 0)
   1.0201e+06             (1.99136e-05 1.23953e-05 0)
   1.0202e+06             (1.98782e-05 1.24144e-05 0)
   1.0203e+06             (1.98425e-05 1.2433e-05 0)
   1.0204e+06             (1.98064e-05 1.24511e-05 0)
   1.0205e+06             (1.977e-05 1.24686e-05 0)
   1.0206e+06             (1.97332e-05 1.24856e-05 0)
   1.0207e+06             (1.9696e-05 1.25021e-05 0)
   1.0208e+06             (1.96585e-05 1.2518e-05 0)
   1.0209e+06             (1.96207e-05 1.25334e-05 0)
    1.021e+06             (1.95825e-05 1.25482e-05 0)
   1.0211e+06             (1.9544e-05 1.25625e-05 0)
   1.0212e+06             (1.95051e-05 1.25763e-05 0)
   1.0213e+06             (1.94659e-05 1.25895e-05 0)
   1.0214e+06             (1.94263e-05 1.26022e-05 0)
   1.0215e+06             (1.93864e-05 1.26144e-05 0)
   1.0216e+06             (1.93462e-05 1.2626e-05 0)
   1.0217e+06             (1.93056e-05 1.2637e-05 0)
   1.0218e+06             (1.92647e-05 1.26475e-05 0)
   1.0219e+06             (1.92234e-05 1.26575e-05 0)
    1.022e+06             (1.91818e-05 1.26669e-05 0)
   1.0221e+06             (1.91399e-05 1.26758e-05 0)
   1.0222e+06             (1.90976e-05 1.26841e-05 0)
   1.0223e+06             (1.9055e-05 1.26919e-05 0)
   1.0224e+06             (1.90121e-05 1.26992e-05 0)
   1.0225e+06             (1.89689e-05 1.27059e-05 0)
   1.0226e+06             (1.89253e-05 1.2712e-05 0)
   1.0227e+06             (1.88815e-05 1.27177e-05 0)
   1.0228e+06             (1.88373e-05 1.27227e-05 0)
   1.0229e+06             (1.87927e-05 1.27273e-05 0)
    1.023e+06             (1.87479e-05 1.27312e-05 0)
   1.0231e+06             (1.87027e-05 1.27346e-05 0)
   1.0232e+06             (1.86572e-05 1.27375e-05 0)
   1.0233e+06             (1.86114e-05 1.27398e-05 0)
   1.0234e+06             (1.85653e-05 1.27416e-05 0)
   1.0235e+06             (1.85188e-05 1.27428e-05 0)
   1.0236e+06             (1.84721e-05 1.27435e-05 0)
   1.0237e+06             (1.8425e-05 1.27436e-05 0)
   1.0238e+06             (1.83777e-05 1.27431e-05 0)
   1.0239e+06             (1.833e-05 1.27422e-05 0)
    1.024e+06             (1.82821e-05 1.27406e-05 0)
   1.0241e+06             (1.82338e-05 1.27385e-05 0)
   1.0242e+06             (1.81853e-05 1.27359e-05 0)
   1.0243e+06             (1.81364e-05 1.27326e-05 0)
   1.0244e+06             (1.80872e-05 1.27289e-05 0)
   1.0245e+06             (1.80377e-05 1.27246e-05 0)
   1.0246e+06             (1.79879e-05 1.27197e-05 0)
   1.0247e+06             (1.79379e-05 1.27143e-05 0)
   1.0248e+06             (1.78875e-05 1.27083e-05 0)
   1.0249e+06             (1.78369e-05 1.27017e-05 0)
    1.025e+06             (1.77859e-05 1.26946e-05 0)
   1.0251e+06             (1.77347e-05 1.26869e-05 0)
   1.0252e+06             (1.76832e-05 1.26787e-05 0)
   1.0253e+06             (1.76314e-05 1.26699e-05 0)
   1.0254e+06             (1.75794e-05 1.26606e-05 0)
   1.0255e+06             (1.75271e-05 1.26507e-05 0)
   1.0256e+06             (1.74744e-05 1.26402e-05 0)
   1.0257e+06             (1.74215e-05 1.26292e-05 0)
   1.0258e+06             (1.73683e-05 1.26176e-05 0)
   1.0259e+06             (1.73149e-05 1.26054e-05 0)
    1.026e+06             (1.72612e-05 1.25927e-05 0)
   1.0261e+06             (1.72072e-05 1.25794e-05 0)
   1.0262e+06             (1.7153e-05 1.25656e-05 0)
   1.0263e+06             (1.70984e-05 1.25512e-05 0)
   1.0264e+06             (1.70437e-05 1.25362e-05 0)
   1.0265e+06             (1.69886e-05 1.25206e-05 0)
   1.0266e+06             (1.69333e-05 1.25045e-05 0)
   1.0267e+06             (1.68778e-05 1.24879e-05 0)
   1.0268e+06             (1.6822e-05 1.24706e-05 0)
   1.0269e+06             (1.67659e-05 1.24528e-05 0)
    1.027e+06             (1.67096e-05 1.24345e-05 0)
   1.0271e+06             (1.6653e-05 1.24156e-05 0)
   1.0272e+06             (1.65962e-05 1.23961e-05 0)
   1.0273e+06             (1.65392e-05 1.2376e-05 0)
   1.0274e+06             (1.64819e-05 1.23554e-05 0)
   1.0275e+06             (1.64243e-05 1.23342e-05 0)
   1.0276e+06             (1.63666e-05 1.23124e-05 0)
   1.0277e+06             (1.63086e-05 1.22901e-05 0)
   1.0278e+06             (1.62503e-05 1.22671e-05 0)
   1.0279e+06             (1.61919e-05 1.22437e-05 0)
    1.028e+06             (1.61332e-05 1.22196e-05 0)
   1.0281e+06             (1.60742e-05 1.2195e-05 0)
   1.0282e+06             (1.60151e-05 1.21698e-05 0)
   1.0283e+06             (1.59557e-05 1.21441e-05 0)
   1.0284e+06             (1.58961e-05 1.21178e-05 0)
   1.0285e+06             (1.58363e-05 1.20909e-05 0)
   1.0286e+06             (1.57763e-05 1.20634e-05 0)
   1.0287e+06             (1.5716e-05 1.20354e-05 0)
   1.0288e+06             (1.56556e-05 1.20068e-05 0)
   1.0289e+06             (1.55949e-05 1.19776e-05 0)
    1.029e+06             (1.55341e-05 1.19479e-05 0)
   1.0291e+06             (1.54731e-05 1.19175e-05 0)
   1.0292e+06             (1.54118e-05 1.18867e-05 0)
   1.0293e+06             (1.53503e-05 1.18552e-05 0)
   1.0294e+06             (1.52887e-05 1.18232e-05 0)
   1.0295e+06             (1.52268e-05 1.17906e-05 0)
   1.0296e+06             (1.51648e-05 1.17575e-05 0)
   1.0297e+06             (1.51026e-05 1.17237e-05 0)
   1.0298e+06             (1.50402e-05 1.16894e-05 0)
   1.0299e+06             (1.49776e-05 1.16546e-05 0)
     1.03e+06             (1.49148e-05 1.16191e-05 0)
   1.0301e+06             (1.48519e-05 1.15831e-05 0)
   1.0302e+06             (1.47888e-05 1.15466e-05 0)
   1.0303e+06             (1.47255e-05 1.15094e-05 0)
   1.0304e+06             (1.46621e-05 1.14717e-05 0)
   1.0305e+06             (1.45985e-05 1.14335e-05 0)
   1.0306e+06             (1.45347e-05 1.13946e-05 0)
   1.0307e+06             (1.44708e-05 1.13552e-05 0)
   1.0308e+06             (1.44068e-05 1.13153e-05 0)
   1.0309e+06             (1.43425e-05 1.12747e-05 0)
    1.031e+06             (1.42781e-05 1.12336e-05 0)
   1.0311e+06             (1.42136e-05 1.1192e-05 0)
   1.0312e+06             (1.4149e-05 1.11498e-05 0)
   1.0313e+06             (1.40842e-05 1.1107e-05 0)
   1.0314e+06             (1.40192e-05 1.10636e-05 0)
   1.0315e+06             (1.39541e-05 1.10197e-05 0)
   1.0316e+06             (1.38889e-05 1.09753e-05 0)
   1.0317e+06             (1.38236e-05 1.09303e-05 0)
   1.0318e+06             (1.37582e-05 1.08847e-05 0)
   1.0319e+06             (1.36926e-05 1.08386e-05 0)
    1.032e+06             (1.36269e-05 1.07919e-05 0)
   1.0321e+06             (1.35611e-05 1.07446e-05 0)
   1.0322e+06             (1.34952e-05 1.06968e-05 0)
   1.0323e+06             (1.34292e-05 1.06485e-05 0)
   1.0324e+06             (1.33631e-05 1.05995e-05 0)
   1.0325e+06             (1.32969e-05 1.05501e-05 0)
   1.0326e+06             (1.32306e-05 1.05001e-05 0)
   1.0327e+06             (1.31642e-05 1.04495e-05 0)
   1.0328e+06             (1.30977e-05 1.03984e-05 0)
   1.0329e+06             (1.30311e-05 1.03468e-05 0)
    1.033e+06             (1.29644e-05 1.02946e-05 0)
   1.0331e+06             (1.28977e-05 1.02419e-05 0)
   1.0332e+06             (1.28309e-05 1.01886e-05 0)
   1.0333e+06             (1.2764e-05 1.01347e-05 0)
   1.0334e+06             (1.26971e-05 1.00804e-05 0)
   1.0335e+06             (1.263e-05 1.00255e-05 0)
   1.0336e+06             (1.2563e-05 9.97006e-06 0)
   1.0337e+06             (1.24958e-05 9.91409e-06 0)
   1.0338e+06             (1.24287e-05 9.85759e-06 0)
   1.0339e+06             (1.23614e-05 9.80057e-06 0)
    1.034e+06             (1.22942e-05 9.74301e-06 0)
   1.0341e+06             (1.22269e-05 9.68492e-06 0)
   1.0342e+06             (1.21595e-05 9.62631e-06 0)
   1.0343e+06             (1.20921e-05 9.56717e-06 0)
   1.0344e+06             (1.20247e-05 9.50752e-06 0)
   1.0345e+06             (1.19573e-05 9.44735e-06 0)
   1.0346e+06             (1.18899e-05 9.38666e-06 0)
   1.0347e+06             (1.18224e-05 9.32547e-06 0)
   1.0348e+06             (1.17549e-05 9.26376e-06 0)
   1.0349e+06             (1.16875e-05 9.20154e-06 0)
    1.035e+06             (1.162e-05 9.1388e-06 0)
   1.0351e+06             (1.15525e-05 9.07557e-06 0)
   1.0352e+06             (1.1485e-05 9.01183e-06 0)
   1.0353e+06             (1.14176e-05 8.94761e-06 0)
   1.0354e+06             (1.13501e-05 8.88289e-06 0)
   1.0355e+06             (1.12827e-05 8.81766e-06 0)
   1.0356e+06             (1.12153e-05 8.75195e-06 0)
   1.0357e+06             (1.11479e-05 8.68574e-06 0)
   1.0358e+06             (1.10805e-05 8.61905e-06 0)
   1.0359e+06             (1.10132e-05 8.55188e-06 0)
    1.036e+06             (1.09459e-05 8.48423e-06 0)
   1.0361e+06             (1.08787e-05 8.41611e-06 0)
   1.0362e+06             (1.08115e-05 8.34751e-06 0)
   1.0363e+06             (1.07444e-05 8.27843e-06 0)
   1.0364e+06             (1.06773e-05 8.2089e-06 0)
   1.0365e+06             (1.06103e-05 8.1389e-06 0)
   1.0366e+06             (1.05433e-05 8.06845e-06 0)
   1.0367e+06             (1.04764e-05 7.99754e-06 0)
   1.0368e+06             (1.04096e-05 7.92617e-06 0)
   1.0369e+06             (1.03429e-05 7.85434e-06 0)
    1.037e+06             (1.02762e-05 7.78207e-06 0)
   1.0371e+06             (1.02097e-05 7.70936e-06 0)
   1.0372e+06             (1.01432e-05 7.63621e-06 0)
   1.0373e+06             (1.00768e-05 7.56263e-06 0)
   1.0374e+06             (1.00106e-05 7.48862e-06 0)
   1.0375e+06             (9.94439e-06 7.41419e-06 0)
   1.0376e+06             (9.87834e-06 7.33932e-06 0)
   1.0377e+06             (9.8124e-06 7.26404e-06 0)
   1.0378e+06             (9.74658e-06 7.18835e-06 0)
   1.0379e+06             (9.68089e-06 7.11223e-06 0)
    1.038e+06             (9.61533e-06 7.03571e-06 0)
   1.0381e+06             (9.54991e-06 6.95878e-06 0)
   1.0382e+06             (9.48465e-06 6.88145e-06 0)
   1.0383e+06             (9.4195e-06 6.80374e-06 0)
   1.0384e+06             (9.35451e-06 6.72564e-06 0)
   1.0385e+06             (9.28966e-06 6.64715e-06 0)
   1.0386e+06             (9.22498e-06 6.56828e-06 0)
   1.0387e+06             (9.16046e-06 6.48904e-06 0)
   1.0388e+06             (9.09611e-06 6.40942e-06 0)
   1.0389e+06             (9.03194e-06 6.32943e-06 0)
    1.039e+06             (8.96795e-06 6.24908e-06 0)
   1.0391e+06             (8.90415e-06 6.16839e-06 0)
   1.0392e+06             (8.84054e-06 6.08733e-06 0)
   1.0393e+06             (8.77712e-06 6.00594e-06 0)
   1.0394e+06             (8.71391e-06 5.92419e-06 0)
   1.0395e+06             (8.65089e-06 5.84213e-06 0)
   1.0396e+06             (8.58807e-06 5.75974e-06 0)
   1.0397e+06             (8.52548e-06 5.67702e-06 0)
   1.0398e+06             (8.46309e-06 5.59398e-06 0)
   1.0399e+06             (8.40092e-06 5.51063e-06 0)
     1.04e+06             (8.33897e-06 5.42698e-06 0)
   1.0401e+06             (8.27726e-06 5.34303e-06 0)
   1.0402e+06             (8.21579e-06 5.25878e-06 0)
   1.0403e+06             (8.15456e-06 5.17423e-06 0)
   1.0404e+06             (8.09359e-06 5.0894e-06 0)
   1.0405e+06             (8.03286e-06 5.00429e-06 0)
   1.0406e+06             (7.9724e-06 4.91891e-06 0)
   1.0407e+06             (7.91218e-06 4.83327e-06 0)
   1.0408e+06             (7.85223e-06 4.74736e-06 0)
   1.0409e+06             (7.79256e-06 4.6612e-06 0)
    1.041e+06             (7.73315e-06 4.57479e-06 0)
   1.0411e+06             (7.67402e-06 4.48814e-06 0)
   1.0412e+06             (7.61517e-06 4.40125e-06 0)
   1.0413e+06             (7.55662e-06 4.31413e-06 0)
   1.0414e+06             (7.49835e-06 4.22679e-06 0)
   1.0415e+06             (7.4404e-06 4.13923e-06 0)
   1.0416e+06             (7.38275e-06 4.05145e-06 0)
   1.0417e+06             (7.32541e-06 3.96347e-06 0)
   1.0418e+06             (7.26839e-06 3.87529e-06 0)
   1.0419e+06             (7.21168e-06 3.78693e-06 0)
    1.042e+06             (7.15529e-06 3.69838e-06 0)
   1.0421e+06             (7.09924e-06 3.60965e-06 0)
   1.0422e+06             (7.04354e-06 3.52073e-06 0)
   1.0423e+06             (6.98814e-06 3.43167e-06 0)
   1.0424e+06             (6.9331e-06 3.34245e-06 0)
   1.0425e+06             (6.8784e-06 3.25308e-06 0)
   1.0426e+06             (6.82405e-06 3.16354e-06 0)
   1.0427e+06             (6.77006e-06 3.07388e-06 0)
   1.0428e+06             (6.71644e-06 2.98409e-06 0)
   1.0429e+06             (6.66321e-06 2.89417e-06 0)
    1.043e+06             (6.61033e-06 2.80412e-06 0)
   1.0431e+06             (6.55785e-06 2.71398e-06 0)
   1.0432e+06             (6.50575e-06 2.62374e-06 0)
   1.0433e+06             (6.45405e-06 2.53341e-06 0)
   1.0434e+06             (6.40276e-06 2.44298e-06 0)
   1.0435e+06             (6.35185e-06 2.35249e-06 0)
   1.0436e+06             (6.30134e-06 2.26193e-06 0)
   1.0437e+06             (6.25124e-06 2.17131e-06 0)
   1.0438e+06             (6.20155e-06 2.08064e-06 0)
   1.0439e+06             (6.15229e-06 1.98993e-06 0)
    1.044e+06             (6.10345e-06 1.89917e-06 0)
   1.0441e+06             (6.05504e-06 1.80837e-06 0)
   1.0442e+06             (6.00707e-06 1.71756e-06 0)
   1.0443e+06             (5.95955e-06 1.62674e-06 0)
   1.0444e+06             (5.91248e-06 1.53591e-06 0)
   1.0445e+06             (5.86587e-06 1.44508e-06 0)
   1.0446e+06             (5.81974e-06 1.35425e-06 0)
   1.0447e+06             (5.77406e-06 1.26344e-06 0)
   1.0448e+06             (5.72887e-06 1.17264e-06 0)
   1.0449e+06             (5.68417e-06 1.08187e-06 0)
    1.045e+06             (5.63998e-06 9.91113e-07 0)
   1.0451e+06             (5.59631e-06 9.0039e-07 0)
   1.0452e+06             (5.55317e-06 8.09702e-07 0)
   1.0453e+06             (5.51057e-06 7.1906e-07 0)
   1.0454e+06             (5.46848e-06 6.28477e-07 0)
   1.0455e+06             (5.42696e-06 5.37883e-07 0)
   1.0456e+06             (5.38599e-06 4.47354e-07 0)
   1.0457e+06             (5.34554e-06 3.56859e-07 0)
   1.0458e+06             (5.30565e-06 2.66442e-07 0)
   1.0459e+06             (5.26626e-06 1.76162e-07 0)
    1.046e+06             (5.22741e-06 8.60118e-08 0)
   1.0461e+06             (5.18911e-06 -3.94493e-09 0)
   1.0462e+06             (5.15178e-06 -9.37597e-08 0)
   1.0463e+06             (5.11519e-06 -1.83375e-07 0)
   1.0464e+06             (5.07879e-06 -2.72752e-07 0)
   1.0465e+06             (5.04266e-06 -3.61884e-07 0)
   1.0466e+06             (5.00698e-06 -4.50909e-07 0)
   1.0467e+06             (4.97198e-06 -5.39653e-07 0)
   1.0468e+06             (4.93749e-06 -6.28224e-07 0)
   1.0469e+06             (4.90354e-06 -7.16544e-07 0)
    1.047e+06             (4.87012e-06 -8.04759e-07 0)
   1.0471e+06             (4.83738e-06 -8.926e-07 0)
   1.0472e+06             (4.80525e-06 -9.80219e-07 0)
   1.0473e+06             (4.77367e-06 -1.06759e-06 0)
   1.0474e+06             (4.74266e-06 -1.15473e-06 0)
   1.0475e+06             (4.71225e-06 -1.2416e-06 0)
   1.0476e+06             (4.68245e-06 -1.32821e-06 0)
   1.0477e+06             (4.65326e-06 -1.41457e-06 0)
   1.0478e+06             (4.62467e-06 -1.50064e-06 0)
   1.0479e+06             (4.59669e-06 -1.58645e-06 0)
    1.048e+06             (4.56934e-06 -1.67194e-06 0)
   1.0481e+06             (4.54264e-06 -1.75714e-06 0)
   1.0482e+06             (4.51656e-06 -1.84205e-06 0)
   1.0483e+06             (4.49111e-06 -1.92663e-06 0)
   1.0484e+06             (4.4663e-06 -2.01091e-06 0)
   1.0485e+06             (4.44214e-06 -2.09485e-06 0)
   1.0486e+06             (4.41866e-06 -2.17845e-06 0)
   1.0487e+06             (4.39585e-06 -2.26174e-06 0)
   1.0488e+06             (4.37369e-06 -2.34468e-06 0)
   1.0489e+06             (4.35221e-06 -2.42728e-06 0)
    1.049e+06             (4.33141e-06 -2.50953e-06 0)
   1.0491e+06             (4.31129e-06 -2.59141e-06 0)
   1.0492e+06             (4.29187e-06 -2.67293e-06 0)
   1.0493e+06             (4.27314e-06 -2.75408e-06 0)
   1.0494e+06             (4.25512e-06 -2.83487e-06 0)
   1.0495e+06             (4.23779e-06 -2.91527e-06 0)
   1.0496e+06             (4.22117e-06 -2.99527e-06 0)
   1.0497e+06             (4.20527e-06 -3.07488e-06 0)
   1.0498e+06             (4.19008e-06 -3.1541e-06 0)
   1.0499e+06             (4.1756e-06 -3.23292e-06 0)
     1.05e+06             (4.16186e-06 -3.31134e-06 0)
   1.0501e+06             (4.14884e-06 -3.38933e-06 0)
   1.0502e+06             (4.13655e-06 -3.4669e-06 0)
   1.0503e+06             (4.12501e-06 -3.54405e-06 0)
   1.0504e+06             (4.1142e-06 -3.62076e-06 0)
   1.0505e+06             (4.10413e-06 -3.69703e-06 0)
   1.0506e+06             (4.09484e-06 -3.77286e-06 0)
   1.0507e+06             (4.08626e-06 -3.84824e-06 0)
   1.0508e+06             (4.07844e-06 -3.92316e-06 0)
   1.0509e+06             (4.07138e-06 -3.99761e-06 0)
    1.051e+06             (4.06507e-06 -4.07157e-06 0)
   1.0511e+06             (4.0595e-06 -4.14506e-06 0)
   1.0512e+06             (4.0547e-06 -4.21805e-06 0)
   1.0513e+06             (4.05063e-06 -4.29053e-06 0)
   1.0514e+06             (4.04735e-06 -4.36251e-06 0)
   1.0515e+06             (4.04483e-06 -4.434e-06 0)
   1.0516e+06             (4.04308e-06 -4.50495e-06 0)
   1.0517e+06             (4.04209e-06 -4.57538e-06 0)
   1.0518e+06             (4.04187e-06 -4.64528e-06 0)
   1.0519e+06             (4.04242e-06 -4.71466e-06 0)
    1.052e+06             (4.04375e-06 -4.7835e-06 0)
   1.0521e+06             (4.04586e-06 -4.85181e-06 0)
   1.0522e+06             (4.04872e-06 -4.91955e-06 0)
   1.0523e+06             (4.05237e-06 -4.98673e-06 0)
   1.0524e+06             (4.0568e-06 -5.05337e-06 0)
   1.0525e+06             (4.062e-06 -5.11943e-06 0)
   1.0526e+06             (4.06798e-06 -5.18493e-06 0)
   1.0527e+06             (4.07473e-06 -5.24984e-06 0)
   1.0528e+06             (4.0823e-06 -5.3142e-06 0)
   1.0529e+06             (4.09063e-06 -5.37795e-06 0)
    1.053e+06             (4.09974e-06 -5.44113e-06 0)
   1.0531e+06             (4.10963e-06 -5.50369e-06 0)
   1.0532e+06             (4.1203e-06 -5.56567e-06 0)
   1.0533e+06             (4.13176e-06 -5.62703e-06 0)
   1.0534e+06             (4.14399e-06 -5.68778e-06 0)
   1.0535e+06             (4.15702e-06 -5.74793e-06 0)
   1.0536e+06             (4.17084e-06 -5.80746e-06 0)
   1.0537e+06             (4.18545e-06 -5.86637e-06 0)
   1.0538e+06             (4.20082e-06 -5.92463e-06 0)
   1.0539e+06             (4.21698e-06 -5.98226e-06 0)
    1.054e+06             (4.23391e-06 -6.03926e-06 0)
   1.0541e+06             (4.25164e-06 -6.09561e-06 0)
   1.0542e+06             (4.27013e-06 -6.15131e-06 0)
   1.0543e+06             (4.28941e-06 -6.20636e-06 0)
   1.0544e+06             (4.30947e-06 -6.26076e-06 0)
   1.0545e+06             (4.33031e-06 -6.3145e-06 0)
   1.0546e+06             (4.35192e-06 -6.36757e-06 0)
   1.0547e+06             (4.37431e-06 -6.41997e-06 0)
   1.0548e+06             (4.39748e-06 -6.4717e-06 0)
   1.0549e+06             (4.42141e-06 -6.52276e-06 0)
    1.055e+06             (4.44612e-06 -6.57313e-06 0)
   1.0551e+06             (4.47158e-06 -6.62281e-06 0)
   1.0552e+06             (4.49781e-06 -6.67181e-06 0)
   1.0553e+06             (4.52484e-06 -6.72011e-06 0)
   1.0554e+06             (4.55261e-06 -6.76772e-06 0)