# Probe 0 (0.05 0.05 0)
#       Probe             0 
#        Time
      92.0016             0.0346514 
      92.0018             0.0346515 
      92.002              0.0346516
      92.0022             0.0346514 
      92.0024             0.0346515 
      92.0026             0.0346514 
