# Probe 0 (0.05 0.05 0)
# Probe 1 (0.2 0 0)
# Probe 2 (0.2 0.05 0)
# Probe 3 (0.2 -0.05 0)
#       Probe             0             1             2             3
#        Time
      92.0016             (0.00250531 0.0347091 2.67189e-28)             (0.209214 -0.211182 -1.2453e-31)             (0.233076 -0.15908 -3.09222e-25)             (0.161128 -0.139682 -3.61836e-25)
      92.0018             (0.00243228 0.0347172 2.67394e-28)             (0.20923 -0.211196 -1.24476e-31)             (0.233133 -0.159078 -3.09173e-25)             (0.16108 -0.13969 -3.6192e-25)
       92.002             (0.00235935 0.1047253 2.67643e-28)             (0.209245 -0.21121 -1.24354e-31)             (0.233189 -0.159076 -3.09198e-25)             (0.161032 -0.139697 -3.62194e-25)
      92.0022             (0.00235935 0.0347253 2.67643e-28)             (0.209245 -0.21121 -1.24354e-31)             (0.233189 -0.159076 -3.09198e-25)             (0.161032 -0.139697 -3.62194e-25)
      92.0024             (0.00235935 0.0247253 2.67643e-28)             (0.209245 -0.21121 -1.24354e-31)             (0.233189 -0.159076 -3.09198e-25)             (0.161032 -0.139697 -3.62194e-25)
      92.0026             (0.00235935 0.0407253 2.67643e-28)             (0.209245 -0.21121 -1.24354e-31)             (0.233189 -0.159076 -3.09198e-25)             (0.161032 -0.139697 -3.62194e-25)
