/*--------------------------------*- C++ -*----------------------------------*\
| =========                 |                                                 |
| \\      /  F ield         | OpenFOAM: The Open Source CFD Toolbox           |
|  \\    /   O peration     | Version:  5.0                                   |
|   \\  /    A nd           | Web:      www.OpenFOAM.org                      |
|    \\/     M anipulation  |                                                 |
\*---------------------------------------------------------------------------*/
FoamFile
{
    version     2.0;
    format      ascii;
    class       volScalarField;
    location    "0";
    object      k;
}
// * * * * * * * * * * * * * * * * * * * * * * * * * * * * * * * * * * * * * //

dimensions      [0 2 -2 0 0 0 0];

internalField   nonuniform List<scalar> 
7200
(
0.000504669
0.000491563
0.000414233
0.000292114
0.000198565
0.00016482
0.000164253
0.000188544
0.000236711
0.000309415
0.000391302
0.000419559
0.000349732
0.000251709
0.000199218
0.000213556
0.000282137
0.000366018
0.000442026
0.000488707
0.000445481
0.000446893
0.000409695
0.000291396
0.000189296
0.000159583
0.000147805
0.0001611
0.000218431
0.000286639
0.000334492
0.00039175
0.000367528
0.000279346
0.00020461
0.000186688
0.000267907
0.000319392
0.000396011
0.00044442
0.000223007
0.000229577
0.000266915
0.000302205
0.000242796
0.000140674
0.000108331
0.000101935
0.000106942
0.000125795
0.00016371
0.000231873
0.000285694
0.000262479
0.000236489
0.000176101
0.000151671
0.000207993
0.00024351
0.000252227
2.97394e-05
1.83883e-05
2.71125e-05
3.64937e-05
8.15566e-05
0.000130686
0.000113757
5.48637e-05
4.47355e-05
4.1036e-05
3.97874e-05
3.13469e-05
2.7525e-05
3.21288e-05
4.9213e-05
0.000127827
0.000126433
8.8324e-05
7.54414e-05
4.78108e-05
1.65772e-05
1.4971e-05
1.10593e-05
1.18024e-05
1.1506e-05
2.00898e-05
7.42453e-05
6.67992e-05
4.20805e-05
4.63781e-05
5.08745e-05
3.00111e-05
2.17803e-05
1.89252e-05
2.51721e-05
3.04434e-05
5.5762e-05
6.48298e-05
4.44403e-05
3.15212e-05
1.48686e-05
9.32558e-06
7.98655e-06
9.16391e-06
9.99291e-06
9.97827e-06
2.41399e-05
3.31269e-05
2.78979e-05
2.91328e-05
4.54686e-05
3.45033e-05
2.4837e-05
1.93974e-05
2.42316e-05
2.55501e-05
2.25057e-05
3.07755e-05
3.70477e-05
2.52081e-05
1.93977e-05
9.69663e-06
7.50019e-06
8.68736e-06
9.44829e-06
1.05972e-05
1.45873e-05
1.72404e-05
1.85867e-05
1.47362e-05
1.52455e-05
2.79254e-05
2.44198e-05
1.76624e-05
1.73608e-05
2.10021e-05
1.76813e-05
1.24706e-05
2.09858e-05
2.53033e-05
2.03091e-05
1.15168e-05
7.93272e-06
8.04652e-06
8.53417e-06
9.46493e-06
1.15935e-05
1.45754e-05
1.48235e-05
1.34519e-05
1.05641e-05
1.80121e-05
1.97056e-05
1.7048e-05
1.19504e-05
1.07729e-05
1.17436e-05
1.00561e-05
1.34234e-05
1.97454e-05
9.67919e-06
9.46676e-06
8.15562e-06
6.52192e-06
5.61717e-06
8.54993e-06
1.27352e-05
1.21468e-05
1.15986e-05
1.28889e-05
9.36495e-06
1.22802e-05
1.81447e-05
1.77033e-05
1.21907e-05
1.02458e-05
1.11898e-05
1.26505e-05
1.10062e-05
8.73167e-06
4.64511e-06
4.94325e-06
6.09171e-06
5.57964e-06
4.06876e-06
6.31016e-06
9.71087e-06
1.01889e-05
1.00982e-05
9.89816e-06
6.48851e-06
9.49842e-06
1.66267e-05
1.95116e-05
1.33681e-05
8.97874e-06
8.9011e-06
1.08314e-05
1.06531e-05
7.1251e-06
6.04628e-06
6.22279e-06
6.89672e-06
6.41311e-06
5.91963e-06
5.11431e-06
4.96091e-06
7.87281e-06
8.91601e-06
8.24095e-06
6.06617e-06
4.72696e-06
8.89841e-06
9.72539e-06
8.38918e-06
7.32881e-06
7.38128e-06
7.51608e-06
7.50589e-06
6.84327e-06
4.88816e-06
6.08382e-06
6.41729e-06
5.47065e-06
5.19902e-06
5.20986e-06
4.98899e-06
4.75563e-06
4.9751e-06
4.36e-06
3.48844e-06
2.7859e-06
5.96674e-06
8.54348e-06
6.41687e-06
3.45747e-06
3.22288e-06
3.35753e-06
3.58426e-06
4.43825e-06
0.000253269
0.000258751
0.000224145
0.000196472
0.000189053
0.00020013
0.000233525
0.000289978
0.000346399
0.000375662
0.000377457
0.000352716
0.000292208
0.000206838
0.000130282
9.93935e-05
0.000103416
0.000121297
0.000152487
0.000202677
0.000149544
0.00015629
0.000245923
0.000149339
0.00015744
0.000186905
0.000201127
0.00025993
0.000289932
0.000383232
0.000351564
0.000340832
0.00032183
0.000220819
0.000105489
9.61645e-05
7.95134e-05
8.0652e-05
8.64402e-05
0.00018754
0.000185386
0.000227946
0.000157901
0.000148003
0.000141768
0.000134621
0.00013153
0.000125699
0.000143444
0.000175425
0.000238008
0.000270393
0.000284549
0.000284652
0.000126289
0.000125651
7.04318e-05
6.80762e-05
6.82108e-05
9.54433e-05
6.5625e-05
8.02039e-05
9.3877e-05
0.000104236
0.00011228
0.00012019
0.00010087
4.24885e-05
2.30202e-05
2.64048e-05
2.68468e-05
2.75094e-05
2.39321e-05
3.30479e-05
0.000136092
0.000129952
5.9001e-05
5.85747e-05
5.26172e-05
5.0447e-05
4.3457e-05
4.62657e-05
4.89211e-05
2.48223e-05
2.40956e-05
3.17956e-05
5.0832e-05
3.92566e-05
2.71088e-05
2.92394e-05
3.38024e-05
2.01349e-05
1.34165e-05
1.1274e-05
1.16119e-05
5.34646e-05
9.15295e-05
6.23451e-05
4.86054e-05
5.01543e-05
3.85476e-05
3.81751e-05
2.99315e-05
2.81517e-05
3.05961e-05
3.19161e-05
2.78406e-05
2.04312e-05
2.1915e-05
1.96615e-05
2.0343e-05
2.32126e-05
1.54194e-05
1.3873e-05
1.48388e-05
1.50696e-05
4.66049e-05
6.19549e-05
4.11405e-05
3.29313e-05
2.33485e-05
2.44998e-05
2.49129e-05
2.46412e-05
1.95796e-05
2.34197e-05
1.74857e-05
2.03968e-05
2.24608e-05
1.74429e-05
1.17111e-05
1.02298e-05
1.67885e-05
1.87208e-05
1.56453e-05
1.45168e-05
1.82459e-05
2.96112e-05
3.4904e-05
2.82295e-05
3.20344e-05
2.4333e-05
2.22958e-05
1.95489e-05
1.75662e-05
1.5575e-05
1.46194e-05
1.49513e-05
1.65562e-05
1.64596e-05
1.12229e-05
9.95959e-06
1.48945e-05
1.86202e-05
1.43206e-05
1.22475e-05
1.15557e-05
1.23969e-05
2.91104e-05
3.74518e-05
3.4807e-05
2.3326e-05
1.92009e-05
2.00209e-05
1.76926e-05
1.31126e-05
1.14874e-05
1.34756e-05
1.63493e-05
1.69185e-05
1.4869e-05
1.20768e-05
1.05361e-05
1.16791e-05
9.63109e-06
8.66541e-06
8.1345e-06
7.51878e-06
6.12189e-06
3.72288e-05
1.22241e-05
1.10019e-05
1.75092e-05
1.39968e-05
8.01987e-06
1.12548e-05
1.39697e-05
1.65359e-05
1.31225e-05
1.0492e-05
1.00689e-05
9.29072e-06
9.34086e-06
8.66206e-06
7.6205e-06
8.68641e-06
9.75988e-06
7.2784e-06
6.52166e-06
7.32355e-06
7.61307e-06
8.82327e-06
1.18566e-05
1.02977e-05
8.13911e-06
5.90485e-06
6.92512e-06
7.84858e-06
6.17648e-06
4.93911e-06
5.44417e-06
4.34232e-06
4.94891e-06
4.99806e-06
5.60825e-06
6.66322e-06
6.1808e-06
6.13918e-06
4.92121e-06
5.75671e-06
5.14718e-06
5.4593e-06
6.94222e-06
7.66215e-06
7.05847e-06
6.60753e-06
5.63368e-06
5.11425e-06
4.25995e-06
3.39065e-06
3.43726e-06
3.60873e-06
4.01114e-06
3.62291e-06
3.11814e-06
3.3816e-06
3.33507e-06
4.75651e-06
5.0846e-06
5.50428e-06
0.000109833
0.000118485
0.000132613
0.000147125
0.000161701
0.000179038
0.000202966
0.000239243
0.000284584
0.000298731
0.000242746
0.000159367
0.000126106
0.000128581
0.000148118
0.000163287
0.000159804
0.000140551
0.000122018
0.000112093
9.67648e-05
0.000110286
0.000118258
0.000137155
0.000145594
0.000162974
0.000195154
0.000213608
0.000275931
0.000294975
0.000278952
0.00016266
0.000125928
0.000126018
0.000152028
0.000168527
0.000168117
0.000151773
0.000118548
9.93083e-05
6.67717e-05
7.09671e-05
8.0286e-05
9.22465e-05
9.69893e-05
0.000107209
0.00012154
0.000133609
0.000159085
0.000180517
0.000234786
0.000254491
0.000194868
0.000145461
0.00012006
0.000144164
0.000181126
0.000173793
0.000101552
7.59799e-05
4.08344e-05
3.97211e-05
4.50598e-05
4.76878e-05
4.73945e-05
4.70432e-05
4.69291e-05
4.53683e-05
3.90071e-05
3.54843e-05
3.39165e-05
0.000111134
0.000159682
0.000170882
0.000164967
0.000124403
0.000103166
0.000106496
0.000109208
7.02695e-05
3.67977e-05
3.41009e-05
3.68722e-05
4.12551e-05
4.47445e-05
4.73709e-05
4.74098e-05
3.58388e-05
2.86478e-05
2.15564e-05
1.99976e-05
2.4327e-05
3.95885e-05
6.41381e-05
6.65686e-05
7.24884e-05
7.78929e-05
6.23458e-05
5.65011e-05
4.80454e-05
2.5817e-05
2.79417e-05
2.81373e-05
2.9375e-05
3.48414e-05
4.00621e-05
3.98251e-05
3.13077e-05
2.17834e-05
1.8593e-05
1.62752e-05
1.61885e-05
1.66494e-05
1.82711e-05
1.67469e-05
1.6538e-05
2.52303e-05
2.69271e-05
2.64845e-05
2.78452e-05
2.87368e-05
2.39103e-05
2.17105e-05
2.15248e-05
2.26238e-05
2.41933e-05
2.58296e-05
2.13626e-05
1.59053e-05
1.34107e-05
1.30553e-05
1.59678e-05
1.77938e-05
1.71554e-05
1.6208e-05
1.42562e-05
1.276e-05
1.26689e-05
1.53488e-05
2.33618e-05
2.6696e-05
2.44546e-05
2.95974e-05
3.48431e-05
3.15183e-05
2.31086e-05
2.10085e-05
1.77365e-05
1.34293e-05
1.40624e-05
1.6055e-05
1.91867e-05
1.96721e-05
1.56851e-05
1.26954e-05
1.24281e-05
1.05728e-05
8.1623e-06
1.26872e-05
1.94388e-05
2.89778e-05
3.05971e-05
2.25773e-05
1.71481e-05
1.63438e-05
2.06502e-05
2.19762e-05
1.84974e-05
1.64068e-05
1.54179e-05
1.79641e-05
1.91356e-05
1.79553e-05
1.38482e-05
1.26822e-05
1.21721e-05
1.0872e-05
8.14274e-06
6.07439e-06
1.4458e-05
9.4037e-06
1.52484e-05
1.61283e-05
1.3717e-05
1.27999e-05
1.04793e-05
1.27016e-05
1.96377e-05
2.2379e-05
1.99745e-05
1.6594e-05
1.18266e-05
1.04307e-05
9.511e-06
9.45998e-06
9.78205e-06
8.59839e-06
6.83212e-06
6.08767e-06
6.79378e-06
5.02325e-06
1.45942e-05
1.59518e-05
1.37018e-05
1.10234e-05
9.10922e-06
7.6628e-06
1.3565e-05
2.37999e-05
2.50206e-05
1.97453e-05
1.20797e-05
9.6976e-06
9.38884e-06
7.3572e-06
4.99663e-06
4.65726e-06
4.22975e-06
3.82407e-06
3.89382e-06
3.56058e-06
4.04987e-06
5.48646e-06
7.50765e-06
7.05678e-06
6.22248e-06
6.19993e-06
5.8296e-06
5.66369e-06
7.28481e-06
6.77426e-06
6.41654e-06
5.87569e-06
5.04419e-06
4.03959e-06
3.85105e-06
3.93891e-06
3.91591e-06
3.91721e-06
3.91791e-06
8.64018e-05
9.22645e-05
0.000103381
0.000114694
0.00012406
0.000132015
0.000138194
0.000142419
0.000148085
0.000146332
0.000129446
0.000116032
0.000120197
0.000132965
0.000144082
0.000142416
0.000123305
0.00010585
9.59242e-05
8.83496e-05
7.99732e-05
8.41456e-05
9.33455e-05
0.000103333
0.000113385
0.000124915
0.000136048
0.000142724
0.000155466
0.000157574
0.000131281
0.000117779
0.000121422
0.000132922
0.00015412
0.000162267
0.00014239
9.77983e-05
8.83304e-05
7.99082e-05
6.01738e-05
6.12578e-05
6.65205e-05
7.47898e-05
8.25841e-05
9.06159e-05
0.000118014
0.000128323
0.000143454
0.000159498
0.000162517
0.000130464
0.000117076
0.000131616
0.000161863
0.000183199
0.000174616
0.000129787
7.95533e-05
6.42407e-05
4.5813e-05
3.90465e-05
3.63851e-05
3.49535e-05
3.57082e-05
3.92909e-05
4.30225e-05
6.1062e-05
7.48273e-05
8.71861e-05
9.00419e-05
0.000138895
0.000142785
0.000130514
0.00012243
0.00011777
0.000134106
0.000152833
0.000102191
4.99041e-05
4.26971e-05
3.85542e-05
3.26736e-05
2.68666e-05
2.83299e-05
3.0841e-05
3.39827e-05
3.47115e-05
3.6462e-05
4.15182e-05
4.59391e-05
6.01935e-05
8.34159e-05
8.736e-05
7.94524e-05
5.79304e-05
5.81413e-05
7.13193e-05
8.17285e-05
5.17278e-05
3.00886e-05
3.15071e-05
2.95099e-05
2.22668e-05
2.36662e-05
2.75755e-05
3.32693e-05
3.2932e-05
2.64277e-05
2.08927e-05
1.99764e-05
2.43493e-05
2.9798e-05
3.01776e-05
2.05122e-05
1.87622e-05
1.70877e-05
2.47751e-05
4.41416e-05
4.20424e-05
4.10062e-05
2.50484e-05
2.29325e-05
2.0761e-05
2.10884e-05
2.43491e-05
3.00176e-05
2.85963e-05
2.12423e-05
1.82791e-05
1.82166e-05
2.2547e-05
2.31672e-05
2.18362e-05
1.542e-05
1.4026e-05
1.27149e-05
1.20197e-05
1.20483e-05
4.69301e-05
2.76434e-05
2.74485e-05
3.1495e-05
3.49215e-05
3.41913e-05
2.58125e-05
2.54863e-05
2.52786e-05
1.63331e-05
1.70314e-05
1.97955e-05
2.00412e-05
1.81725e-05
1.71941e-05
1.40863e-05
1.27101e-05
1.18249e-05
1.05861e-05
9.25349e-06
1.35672e-05
1.9062e-05
2.30437e-05
1.96519e-05
1.79554e-05
1.7137e-05
2.60329e-05
2.75793e-05
2.05596e-05
1.55045e-05
1.46489e-05
1.70225e-05
1.82692e-05
1.51743e-05
1.29775e-05
1.20129e-05
1.20707e-05
1.1943e-05
9.24681e-06
8.18664e-06
6.07257e-06
9.62933e-06
1.43052e-05
1.39289e-05
1.47388e-05
1.55875e-05
1.55691e-05
2.27162e-05
2.32936e-05
2.17165e-05
2.26551e-05
1.92274e-05
1.16255e-05
1.01666e-05
9.80259e-06
1.05677e-05
1.17026e-05
1.12712e-05
7.70722e-06
6.9714e-06
7.52278e-06
1.08797e-05
1.4748e-05
1.59134e-05
1.30634e-05
1.07124e-05
8.58366e-06
9.27029e-06
2.46234e-05
2.94032e-05
2.78017e-05
1.9524e-05
1.49159e-05
1.43525e-05
1.09169e-05
8.28513e-06
6.36213e-06
5.92591e-06
4.94254e-06
4.30255e-06
5.23735e-06
4.35308e-06
4.45506e-06
6.17188e-06
7.70023e-06
7.21272e-06
6.29276e-06
5.82797e-06
5.50932e-06
1.35911e-05
1.61667e-05
1.34868e-05
1.02162e-05
8.72429e-06
6.44355e-06
4.93918e-06
4.22342e-06
4.33112e-06
4.46699e-06
4.59136e-06
4.62982e-06
0.000110148
0.000107298
9.80152e-05
8.46781e-05
7.69357e-05
7.63188e-05
7.64385e-05
7.4936e-05
7.55839e-05
7.8535e-05
8.2111e-05
8.58488e-05
9.17728e-05
9.91982e-05
0.000105122
0.000106903
0.000107741
0.000112819
0.000114927
0.000112524
0.000123012
0.000111861
0.000100324
8.34735e-05
7.48637e-05
7.31127e-05
0.000102993
7.09621e-05
7.18442e-05
7.38868e-05
0.000106717
0.000110168
0.000109865
9.89117e-05
0.000101343
0.000124068
0.00010532
0.000103714
0.000106708
0.000109664
0.000108482
0.000114255
0.000101844
8.30016e-05
7.84184e-05
7.03097e-05
6.99612e-05
7.34895e-05
7.02999e-05
7.12359e-05
7.53328e-05
8.43943e-05
8.59706e-05
8.56912e-05
0.000100208
0.000105004
0.000104428
8.06149e-05
9.07197e-05
0.000101796
6.24257e-05
5.79798e-05
6.63478e-05
7.47231e-05
8.17843e-05
6.00071e-05
5.51068e-05
4.08623e-05
5.23966e-05
5.24958e-05
5.47238e-05
6.77984e-05
6.96492e-05
5.66708e-05
9.58139e-05
7.28105e-05
7.11529e-05
7.20462e-05
6.18462e-05
6.93626e-05
7.20861e-05
5.79175e-05
3.7099e-05
3.54183e-05
5.66852e-05
8.57495e-05
8.30486e-05
3.99177e-05
3.91001e-05
4.98965e-05
5.49871e-05
5.90484e-05
5.93725e-05
5.85439e-05
6.91698e-05
7.23251e-05
6.26954e-05
6.54134e-05
6.17404e-05
6.99478e-05
3.95867e-05
3.11207e-05
2.49523e-05
2.33468e-05
2.13983e-05
2.88531e-05
4.86792e-05
5.11476e-05
3.4911e-05
3.46365e-05
4.14715e-05
5.87472e-05
5.26731e-05
4.43734e-05
3.503e-05
3.93357e-05
5.01872e-05
4.68141e-05
4.00893e-05
4.37316e-05
3.32721e-05
2.92583e-05
2.10592e-05
1.72227e-05
1.88202e-05
2.32823e-05
2.41663e-05
3.16695e-05
2.81582e-05
2.91141e-05
3.60286e-05
3.47995e-05
3.01181e-05
2.9997e-05
2.22482e-05
1.73606e-05
1.87186e-05
2.85517e-05
4.04475e-05
3.6359e-05
2.67878e-05
2.25441e-05
2.01959e-05
1.92604e-05
2.22071e-05
1.92228e-05
2.08776e-05
2.71385e-05
3.45783e-05
3.3755e-05
2.87144e-05
2.1091e-05
1.35281e-05
1.13415e-05
1.26563e-05
1.34112e-05
1.29415e-05
1.28504e-05
1.72567e-05
2.54433e-05
1.46056e-05
1.58413e-05
1.5177e-05
1.79163e-05
2.05931e-05
2.13782e-05
2.22248e-05
2.52149e-05
2.78601e-05
2.83077e-05
2.73795e-05
1.86769e-05
1.39216e-05
1.01996e-05
1.00694e-05
9.55096e-06
9.60969e-06
9.65173e-06
9.86472e-06
8.92002e-06
1.00745e-05
1.40892e-05
1.34295e-05
2.15442e-05
2.5341e-05
2.4422e-05
2.2275e-05
2.81634e-05
3.8414e-05
3.54564e-05
2.72867e-05
1.84663e-05
1.7395e-05
1.08103e-05
9.96604e-06
9.461e-06
1.24706e-05
1.24997e-05
1.27732e-05
8.37592e-06
1.27513e-05
1.32317e-05
1.21956e-05
1.34049e-05
1.47238e-05
1.35824e-05
1.77136e-05
2.75299e-05
3.35675e-05
3.11359e-05
2.5092e-05
1.89272e-05
1.84768e-05
1.27309e-05
9.25865e-06
7.75977e-06
1.15483e-05
1.21886e-05
1.13532e-05
1.21924e-05
5.62503e-06
6.09252e-06
7.40693e-06
8.98191e-06
8.85733e-06
8.20175e-06
8.01369e-06
7.92027e-06
1.52466e-05
1.95599e-05
2.28078e-05
1.78447e-05
1.00866e-05
6.94425e-06
5.06931e-06
3.94148e-06
5.79368e-06
7.71044e-06
7.82874e-06
6.20761e-06
9.42171e-05
0.00010472
0.000124837
0.000136582
0.000126751
0.00010387
8.99769e-05
9.55967e-05
0.00010303
0.000104775
0.000100516
9.46144e-05
9.31623e-05
9.37424e-05
9.13408e-05
8.68655e-05
8.94729e-05
9.64229e-05
9.64935e-05
9.33154e-05
8.94783e-05
0.000104424
0.000125966
0.000136938
0.000135546
0.000120168
9.29195e-05
9.19942e-05
9.80786e-05
9.97255e-05
9.78488e-05
9.32892e-05
9.08945e-05
8.98589e-05
8.61309e-05
8.33631e-05
8.74916e-05
0.000100798
9.97463e-05
8.99889e-05
7.94377e-05
8.24602e-05
9.15516e-05
0.000123349
0.000142664
0.000146491
0.000119415
7.61285e-05
7.82452e-05
8.85147e-05
9.09232e-05
8.65615e-05
7.68309e-05
7.59147e-05
7.82501e-05
7.96217e-05
8.56417e-05
0.000102484
0.000107083
8.91178e-05
7.54532e-05
5.43417e-05
5.28968e-05
5.76089e-05
6.51494e-05
7.83073e-05
0.000112138
0.000114982
6.60309e-05
5.59943e-05
6.54703e-05
6.91753e-05
6.72291e-05
5.89158e-05
5.41074e-05
5.72993e-05
7.48202e-05
7.72498e-05
7.86266e-05
9.11654e-05
5.55763e-05
5.28839e-05
4.05819e-05
3.57724e-05
4.66579e-05
5.99185e-05
6.81318e-05
9.91188e-05
7.91831e-05
4.2533e-05
4.3368e-05
4.45071e-05
4.0633e-05
4.91611e-05
5.20329e-05
5.33597e-05
6.15509e-05
7.09824e-05
5.77468e-05
4.70735e-05
2.85426e-05
3.21563e-05
4.05179e-05
3.79347e-05
3.13071e-05
4.91516e-05
5.43439e-05
5.16802e-05
5.54344e-05
3.79313e-05
3.02214e-05
2.56483e-05
2.77141e-05
2.69296e-05
3.80305e-05
4.4713e-05
5.28832e-05
6.06841e-05
6.29797e-05
5.11558e-05
2.93192e-05
2.4232e-05
2.37787e-05
2.15243e-05
2.33996e-05
2.98653e-05
2.96643e-05
2.69633e-05
3.27842e-05
4.37086e-05
3.51662e-05
2.52917e-05
2.62932e-05
2.46823e-05
2.4215e-05
3.13503e-05
3.27658e-05
3.12728e-05
3.2552e-05
3.78749e-05
2.05533e-05
2.03094e-05
2.02075e-05
1.88248e-05
1.81645e-05
1.82002e-05
1.95215e-05
2.42507e-05
2.25537e-05
2.76936e-05
3.39428e-05
3.32113e-05
2.43038e-05
1.88453e-05
1.30458e-05
1.1817e-05
1.50341e-05
1.61945e-05
1.68765e-05
1.76485e-05
1.47559e-05
1.67158e-05
1.55625e-05
1.31779e-05
1.8799e-05
1.93962e-05
2.04737e-05
1.74134e-05
1.88279e-05
1.94277e-05
1.76408e-05
1.73846e-05
1.5663e-05
1.14436e-05
7.97576e-06
6.78046e-06
8.73503e-06
1.09418e-05
1.04896e-05
1.02906e-05
1.28187e-05
1.51483e-05
1.08558e-05
8.57988e-06
8.41039e-06
1.42842e-05
1.48074e-05
1.28042e-05
1.1937e-05
1.07819e-05
9.15979e-06
1.13844e-05
1.50954e-05
1.27851e-05
8.39971e-06
7.61698e-06
1.01679e-05
1.11397e-05
1.03045e-05
9.40974e-06
1.184e-05
9.88278e-06
8.56476e-06
8.25278e-06
8.7622e-06
9.86421e-06
8.54051e-06
6.76062e-06
6.09361e-06
7.39495e-06
7.53715e-06
6.75878e-06
6.82817e-06
8.21529e-06
7.93832e-06
6.62263e-06
7.18344e-06
9.52542e-06
1.19944e-05
1.34976e-05
8.10337e-06
7.64013e-06
6.63472e-06
6.33426e-06
6.62688e-06
6.60721e-06
5.84649e-06
5.26455e-06
5.32114e-06
5.2981e-06
6.63488e-06
6.75742e-06
5.44106e-06
5.64115e-06
6.43326e-06
5.39286e-06
4.89576e-06
6.09217e-06
8.79838e-06
8.45134e-06
0.000138249
0.000163695
0.000203704
0.0002371
0.000235708
0.000185974
0.000133123
0.000122671
0.000120523
0.000121862
0.000126839
0.000129313
0.000130245
0.000125006
0.000113621
0.000113356
0.000132203
0.000154666
0.000149399
0.000133822
0.000127524
0.000160374
0.000181227
0.000218449
0.000239371
0.000219896
0.000154378
0.000125427
0.000112991
0.000111311
0.000114209
0.000117947
0.000124946
0.00012304
0.000111529
0.000110855
0.000124632
0.000161295
0.000158237
0.000132574
0.000104769
0.000111481
0.000128708
0.000148235
0.000178384
0.00022023
0.000207363
0.00013235
9.88328e-05
8.46901e-05
8.23881e-05
8.50962e-05
8.96632e-05
9.87426e-05
0.000103735
9.74721e-05
0.000101581
0.000131445
0.000146577
0.000134365
8.10022e-05
6.81409e-05
6.79283e-05
6.06401e-05
5.36837e-05
4.72606e-05
0.000123155
0.000131599
8.42845e-05
6.78352e-05
5.37399e-05
6.21368e-05
6.68505e-05
6.55231e-05
6.18214e-05
6.83282e-05
7.23356e-05
6.92286e-05
6.11715e-05
7.94442e-05
4.39703e-05
5.02692e-05
4.20866e-05
4.05293e-05
3.91608e-05
4.04667e-05
3.9823e-05
6.38304e-05
8.10089e-05
5.5638e-05
4.46448e-05
4.40328e-05
3.98573e-05
4.80636e-05
5.55344e-05
5.19533e-05
5.08609e-05
4.8453e-05
4.03518e-05
3.0208e-05
2.23173e-05
2.30098e-05
2.78328e-05
3.08667e-05
2.84711e-05
3.24981e-05
4.10477e-05
3.11812e-05
4.77649e-05
5.40907e-05
4.05825e-05
2.74774e-05
2.5513e-05
2.637e-05
3.39424e-05
4.07975e-05
4.6552e-05
5.26386e-05
5.18016e-05
3.10256e-05
2.36706e-05
2.51292e-05
2.41101e-05
2.06394e-05
1.84394e-05
2.28049e-05
2.67115e-05
2.35477e-05
1.94153e-05
3.79153e-05
3.49758e-05
2.77855e-05
2.9026e-05
2.97968e-05
2.5113e-05
2.15673e-05
2.49888e-05
3.60227e-05
3.92473e-05
3.31262e-05
1.879e-05
1.95839e-05
2.18058e-05
1.72683e-05
1.54601e-05
1.66421e-05
1.78137e-05
2.73982e-05
2.79224e-05
2.6566e-05
3.01808e-05
2.98442e-05
2.70024e-05
2.62343e-05
2.32131e-05
1.35344e-05
1.23703e-05
1.65834e-05
2.08164e-05
1.98807e-05
1.63751e-05
1.46299e-05
1.35108e-05
1.2364e-05
1.46632e-05
2.18276e-05
2.17706e-05
1.9818e-05
1.87667e-05
1.76643e-05
1.79544e-05
1.96749e-05
1.63231e-05
9.05585e-06
7.10955e-06
8.46325e-06
1.06242e-05
1.42078e-05
1.51857e-05
1.28247e-05
1.5337e-05
1.39775e-05
8.25278e-06
5.73793e-06
5.38283e-06
9.33495e-06
1.16333e-05
1.0677e-05
1.00427e-05
7.77415e-06
8.25465e-06
1.1543e-05
1.3797e-05
1.20845e-05
6.10104e-06
6.16076e-06
1.07686e-05
1.36272e-05
1.49814e-05
1.478e-05
1.01436e-05
9.72499e-06
8.31894e-06
6.95568e-06
7.10961e-06
7.99874e-06
7.31884e-06
6.46394e-06
5.94513e-06
6.2408e-06
5.77135e-06
4.88613e-06
8.39843e-06
9.93578e-06
7.15755e-06
4.98729e-06
6.07272e-06
9.32866e-06
1.05555e-05
1.07606e-05
9.63844e-06
8.75279e-06
6.98098e-06
5.89203e-06
5.77245e-06
5.69577e-06
5.39937e-06
5.17797e-06
5.92027e-06
6.0814e-06
5.61616e-06
5.61511e-06
5.6832e-06
8.093e-06
6.91962e-06
4.94311e-06
4.0948e-06
4.94622e-06
8.78868e-06
1.00787e-05
0.000398108
0.00033483
0.000207315
0.000236801
0.000303035
0.00037107
0.000436395
0.00041213
0.000302269
0.000209332
0.00015346
0.000131816
0.000131168
0.000152468
0.000197187
0.000259667
0.000330608
0.00038863
0.000413189
0.000400248
0.000390365
0.000311774
0.000191244
0.000222971
0.000266749
0.000327553
0.000398569
0.00041507
0.00028468
0.000203687
0.000143597
0.000125946
0.000124957
0.000136024
0.000166123
0.000211588
0.000269972
0.000320594
0.000359073
0.000367051
0.000209665
0.000284437
0.000189486
0.000111805
0.000146423
0.000180429
0.000203035
0.000236672
0.000265073
0.000231056
0.00015764
0.000106893
0.000102754
0.000102308
0.000105773
0.00010881
0.000112567
0.000131946
0.000167076
0.000221538
3.78842e-05
5.16187e-05
0.000105426
9.13764e-05
6.43546e-05
5.94086e-05
5.85083e-05
5.74662e-05
6.22985e-05
7.14133e-05
7.81437e-05
6.37458e-05
4.33075e-05
4.6755e-05
5.12402e-05
4.84403e-05
2.73318e-05
2.43529e-05
2.49184e-05
2.26546e-05
1.46293e-05
2.00244e-05
6.63946e-05
9.96779e-05
8.17637e-05
7.17482e-05
6.45184e-05
4.95435e-05
4.0122e-05
3.62694e-05
2.79697e-05
2.84925e-05
2.65786e-05
2.34019e-05
2.57988e-05
2.49762e-05
1.88551e-05
2.20037e-05
2.09208e-05
1.80351e-05
1.58585e-05
1.79588e-05
2.27234e-05
5.61908e-05
7.25849e-05
6.54805e-05
5.73725e-05
4.52203e-05
3.57575e-05
3.14175e-05
2.60018e-05
2.67573e-05
3.37292e-05
2.64128e-05
2.14974e-05
2.07733e-05
1.78284e-05
2.6001e-05
2.70375e-05
1.82912e-05
1.42921e-05
1.88476e-05
1.71489e-05
1.70175e-05
1.80162e-05
2.38192e-05
2.25425e-05
2.11255e-05
2.62752e-05
3.4663e-05
3.23563e-05
3.44313e-05
4.431e-05
5.81711e-05
3.78889e-05
1.92213e-05
1.78389e-05
1.99527e-05
2.39578e-05
1.74042e-05
1.31413e-05
1.26257e-05
1.43221e-05
1.57115e-05
1.50776e-05
1.19843e-05
8.52154e-06
1.0948e-05
1.37448e-05
2.87069e-05
3.6824e-05
2.88667e-05
2.3737e-05
4.59971e-05
5.87938e-05
3.1822e-05
2.21726e-05
2.0972e-05
2.17213e-05
1.89532e-05
1.15014e-05
9.97284e-06
9.90742e-06
1.12772e-05
1.01974e-05
5.04265e-06
5.39739e-06
5.6367e-06
6.08922e-06
6.57725e-06
1.53596e-05
1.58997e-05
1.25489e-05
1.01012e-05
1.44681e-05
1.68658e-05
1.69061e-05
1.73129e-05
1.9137e-05
1.82438e-05
8.74181e-06
9.92087e-06
9.76879e-06
8.30016e-06
5.0437e-06
4.17536e-06
3.49311e-06
3.9402e-06
4.84406e-06
4.71919e-06
5.25375e-06
9.505e-06
8.67013e-06
7.32984e-06
5.54907e-06
9.36286e-06
1.06201e-05
1.2217e-05
1.25327e-05
1.16767e-05
8.11418e-06
9.06631e-06
7.48507e-06
6.17046e-06
4.67435e-06
4.36224e-06
4.39601e-06
4.46424e-06
5.3329e-06
6.14065e-06
6.02724e-06
5.62045e-06
7.01934e-06
7.12484e-06
6.20429e-06
6.15774e-06
6.06294e-06
6.76098e-06
8.03635e-06
6.78417e-06
6.29418e-06
6.17177e-06
6.02811e-06
5.35742e-06
3.85412e-06
3.59455e-06
5.20635e-06
7.74247e-06
9.33401e-06
9.51766e-06
9.18635e-06
7.29615e-06
6.70074e-06
7.31518e-06
6.50084e-06
4.88765e-06
3.97511e-06
3.4935e-06
4.5279e-06
6.8414e-06
0.000144906
0.000167343
0.000155438
0.000104393
9.9589e-05
0.000118791
0.000140944
0.000155275
0.00016755
0.000182756
0.00018988
0.000197176
0.000220685
0.000238217
0.00021683
0.000185017
0.000185403
0.000187664
0.00017169
0.000143888
0.000137022
0.000180089
0.000184378
0.000114181
0.000101545
0.0001189
0.000144552
0.000154166
0.000161136
0.000172253
0.000180109
0.000194203
0.000208229
0.000228541
0.000201886
0.000182042
0.000185173
0.000190137
0.000179374
0.000152873
0.000117914
0.00013606
0.000205571
0.000132079
8.38731e-05
9.94586e-05
0.000122626
0.000138304
0.000138356
0.000124686
0.000132849
0.000159594
0.000166989
0.000170856
0.00017439
0.000175815
0.000173646
0.000175349
0.000165258
0.000163994
0.000110113
9.42963e-05
7.73089e-05
0.000120396
0.000117966
6.4933e-05
7.24446e-05
8.84677e-05
9.17588e-05
8.17898e-05
7.63955e-05
7.16207e-05
7.05114e-05
6.63734e-05
5.8881e-05
7.95928e-05
9.70618e-05
9.93e-05
0.000108011
0.000102205
5.92895e-05
9.50941e-05
9.29248e-05
7.69567e-05
8.98035e-05
6.09556e-05
6.5931e-05
8.18144e-05
6.56046e-05
5.97251e-05
5.61742e-05
4.79397e-05
3.50843e-05
3.12794e-05
2.6132e-05
2.60877e-05
3.61129e-05
3.67709e-05
3.61396e-05
5.46904e-05
3.04864e-05
3.64925e-05
4.75055e-05
4.18601e-05
6.22151e-05
8.19886e-05
6.81644e-05
7.28858e-05
5.10562e-05
4.7598e-05
4.50658e-05
3.38921e-05
3.55915e-05
2.43404e-05
2.13695e-05
1.86902e-05
1.76689e-05
2.18437e-05
2.24208e-05
2.14724e-05
2.03881e-05
2.3561e-05
1.72873e-05
1.66588e-05
1.42347e-05
8.30327e-05
0.00010338
9.77072e-05
5.49154e-05
4.50486e-05
3.85204e-05
3.27326e-05
5.94667e-05
8.04734e-05
3.56101e-05
1.67111e-05
1.62618e-05
2.00325e-05
2.25936e-05
1.92062e-05
2.1531e-05
2.23064e-05
2.06465e-05
1.59006e-05
1.39583e-05
1.14714e-05
3.34824e-05
4.81756e-05
6.28965e-05
5.445e-05
4.19255e-05
3.50448e-05
3.76974e-05
6.12274e-05
7.09372e-05
2.7964e-05
2.98498e-05
3.13875e-05
2.38993e-05
2.11803e-05
1.18563e-05
1.55246e-05
1.89916e-05
1.49114e-05
8.91813e-06
5.47063e-06
8.02061e-06
8.62409e-06
7.69073e-06
1.3662e-05
2.3348e-05
3.05221e-05
2.6478e-05
1.12523e-05
2.54003e-05
2.89672e-05
2.36385e-05
1.83864e-05
1.73205e-05
1.72118e-05
7.88679e-06
1.06226e-05
1.41165e-05
9.71463e-06
6.37627e-06
4.84443e-06
3.6083e-06
3.63087e-06
4.14382e-06
3.97667e-06
6.15736e-06
7.35191e-06
6.85775e-06
5.99621e-06
8.38221e-06
2.13002e-05
1.9252e-05
1.36096e-05
1.30479e-05
1.08381e-05
5.74427e-06
9.95598e-06
1.09007e-05
7.86655e-06
6.37639e-06
4.47138e-06
4.24718e-06
4.687e-06
5.60446e-06
5.60457e-06
4.50753e-06
4.22976e-06
5.5591e-06
5.71259e-06
1.05366e-05
1.45538e-05
1.27869e-05
1.05316e-05
8.26603e-06
6.33885e-06
5.01676e-06
5.79655e-06
6.27558e-06
5.33908e-06
4.2112e-06
3.882e-06
4.74082e-06
6.24807e-06
7.17971e-06
7.63169e-06
8.75394e-06
7.80793e-06
7.36185e-06
7.37535e-06
6.7915e-06
5.62649e-06
4.15208e-06
3.39112e-06
3.50746e-06
4.88352e-06
0.000195414
0.000249662
0.000250904
0.000179929
0.000183199
0.000238228
0.00029011
0.000288916
0.000290879
0.000314656
0.000317699
0.000295716
0.000285889
0.000287746
0.000245045
0.00016151
0.000129705
0.000129893
0.000133193
0.000149636
0.000162757
0.000235683
0.000259561
0.000188678
0.000182239
0.000217933
0.000277784
0.000300939
0.000285239
0.000288506
0.000289776
0.000281775
0.000278706
0.000281323
0.000265792
0.000185188
0.000137276
0.000137478
0.000130948
0.000132444
0.000107158
0.000127366
0.00018628
0.000162302
0.000134964
0.00015598
0.000207751
0.000276847
0.000276517
0.000181385
0.000182929
0.000223629
0.000231538
0.000227234
0.00023694
0.000222005
0.000166541
0.000161515
0.000130135
0.000111597
8.51094e-05
8.05086e-05
6.63615e-05
8.1714e-05
0.00010096
7.94873e-05
8.634e-05
0.000107286
0.000105176
8.81367e-05
6.55682e-05
5.10738e-05
6.81555e-05
6.17542e-05
5.89673e-05
9.93827e-05
0.000162977
0.0001455
0.000146058
0.000116742
7.47591e-05
7.16581e-05
6.4971e-05
4.53841e-05
7.86078e-05
9.06753e-05
7.12736e-05
6.59147e-05
5.25426e-05
4.50279e-05
5.02846e-05
3.99393e-05
3.27825e-05
2.28464e-05
2.06974e-05
2.23694e-05
4.33536e-05
5.28512e-05
6.34352e-05
7.52565e-05
3.96537e-05
5.11571e-05
5.47064e-05
4.20504e-05
4.51318e-05
6.79618e-05
6.85832e-05
5.01782e-05
4.722e-05
3.38584e-05
3.73547e-05
3.72044e-05
2.76171e-05
2.06086e-05
1.98661e-05
2.00969e-05
2.06104e-05
2.25648e-05
2.64991e-05
2.6054e-05
3.14771e-05
3.14796e-05
2.43486e-05
1.69346e-05
1.47988e-05
4.57465e-05
6.77631e-05
7.26992e-05
6.95267e-05
5.79992e-05
3.15234e-05
3.0727e-05
5.20342e-05
4.90609e-05
2.16013e-05
2.20146e-05
2.37783e-05
2.62023e-05
2.31739e-05
2.29281e-05
3.1023e-05
2.97649e-05
2.49309e-05
1.52584e-05
1.26498e-05
1.09864e-05
1.68146e-05
3.90336e-05
5.53807e-05
4.49328e-05
3.46592e-05
2.46356e-05
2.53419e-05
5.23184e-05
4.74879e-05
2.58222e-05
3.90222e-05
3.12659e-05
2.11911e-05
2.14998e-05
9.98635e-06
2.42282e-05
2.3494e-05
1.80061e-05
1.05433e-05
7.89442e-06
7.18099e-06
8.92077e-06
7.61291e-06
8.02103e-06
2.09948e-05
2.71199e-05
2.15003e-05
2.09186e-05
3.2339e-05
2.82478e-05
2.27741e-05
1.66283e-05
1.54816e-05
1.74394e-05
6.53203e-06
1.29728e-05
1.84248e-05
1.23737e-05
7.30331e-06
5.37978e-06
4.61223e-06
3.76858e-06
3.97009e-06
4.11532e-06
6.69625e-06
8.46796e-06
7.46072e-06
6.25746e-06
1.35592e-05
1.99454e-05
1.52553e-05
1.24076e-05
1.00543e-05
8.35223e-06
4.57492e-06
5.55074e-06
9.33971e-06
9.23393e-06
6.83087e-06
5.09453e-06
4.54315e-06
5.13302e-06
5.38409e-06
5.06193e-06
4.6413e-06
4.60241e-06
5.34027e-06
5.37488e-06
1.34592e-05
1.62009e-05
1.32182e-05
1.08832e-05
7.98438e-06
6.60464e-06
4.4869e-06
4.77691e-06
5.52755e-06
5.43442e-06
4.63589e-06
4.27128e-06
4.36882e-06
5.71742e-06
6.64037e-06
7.00863e-06
6.92471e-06
6.31323e-06
6.4411e-06
7.47565e-06
7.68411e-06
6.83531e-06
4.01673e-06
3.50061e-06
4.10607e-06
4.64349e-06
0.000194579
0.000175407
0.000194805
0.000251
0.000342947
0.000485102
0.000662884
0.00063229
0.000421612
0.000361781
0.000404505
0.00044161
0.000397297
0.000291386
0.000233141
0.000207884
0.000173241
0.000165009
0.000174082
0.000193642
0.000197237
0.00017072
0.000191311
0.000274263
0.000306711
0.000380847
0.000549543
0.000557499
0.000370601
0.000346717
0.000359308
0.000383006
0.000347842
0.000310299
0.000251378
0.000243631
0.000160685
0.000144313
0.000150571
0.000192272
0.000152971
0.00016827
0.000134023
0.000152206
0.00016295
0.000172387
0.000191252
0.000224691
0.000297038
0.000257977
0.000244951
0.000264187