/*--------------------------------*- C++ -*----------------------------------*\
| =========                 |                                                 |
| \\      /  F ield         | OpenFOAM: The Open Source CFD Toolbox           |
|  \\    /   O peration     | Version:  5.0                                   |
|   \\  /    A nd           | Web:      www.OpenFOAM.org                      |
|    \\/     M anipulation  |                                                 |
\*---------------------------------------------------------------------------*/
FoamFile
{
    version     2.0;
    format      ascii;
    class       volScalarField;
    location    "0";
    object      nut;
}
// * * * * * * * * * * * * * * * * * * * * * * * * * * * * * * * * * * * * * //

dimensions      [0 2 -1 0 0 0 0];

internalField   nonuniform List<scalar> 
7200
(
6.49359e-05
6.41151e-05
5.88562e-05
4.93691e-05
4.07027e-05
3.70614e-05
3.69933e-05
3.96113e-05
4.43777e-05
5.07609e-05
5.71466e-05
5.92472e-05
5.40777e-05
4.58686e-05
4.08206e-05
4.20902e-05
4.82795e-05
5.50253e-05
6.05742e-05
6.38419e-05
6.29486e-05
6.30986e-05
6.05027e-05
5.09676e-05
4.10555e-05
3.76547e-05
3.62352e-05
3.78041e-05
4.39532e-05
5.03684e-05
5.4462e-05
5.91713e-05
5.73386e-05
4.99573e-05
4.27788e-05
4.07253e-05
4.85844e-05
5.30506e-05
5.91918e-05
6.28743e-05
4.6745e-05
4.73365e-05
5.15137e-05
5.51626e-05
4.95843e-05
3.76338e-05
3.30302e-05
3.20638e-05
3.25927e-05
3.51328e-05
3.99626e-05
4.78222e-05
5.36491e-05
5.16218e-05
4.90736e-05
4.23699e-05
3.91541e-05
4.55729e-05
4.91569e-05
5.00172e-05
1.8871e-05
1.49078e-05
1.72994e-05
2.01795e-05
2.87668e-05
3.88475e-05
3.74134e-05
2.60836e-05
2.35681e-05
2.25477e-05
2.22059e-05
1.95438e-05
1.80245e-05
1.9008e-05
2.40124e-05
3.93079e-05
3.94537e-05
3.30306e-05
3.04065e-05
2.39538e-05
1.52789e-05
1.45199e-05
1.24648e-05
1.28587e-05
1.27211e-05
1.59427e-05
3.06965e-05
3.05594e-05
2.43454e-05
2.55608e-05
2.68314e-05
2.05772e-05
1.7539e-05
1.62662e-05
1.86678e-05
2.06434e-05
2.74487e-05
3.01546e-05
2.50066e-05
2.09855e-05
1.54681e-05
1.22424e-05
1.13377e-05
1.21374e-05
1.26813e-05
1.26789e-05
1.85883e-05
2.26299e-05
2.10494e-05
2.14944e-05
2.68208e-05
2.35366e-05
1.9987e-05
1.76553e-05
1.96486e-05
2.02899e-05
1.8853e-05
2.19426e-05
2.42342e-05
2.01602e-05
1.88275e-05
1.33148e-05
1.17275e-05
1.25461e-05
1.30855e-05
1.39443e-05
1.63378e-05
1.77879e-05
1.84645e-05
1.64026e-05
1.63543e-05
2.25243e-05
2.11321e-05
1.80225e-05
1.77384e-05
1.93423e-05
1.78865e-05
1.4986e-05
1.91226e-05
2.14791e-05
2.03496e-05
1.54521e-05
1.28815e-05
1.28755e-05
1.3256e-05
1.40314e-05
1.55989e-05
1.74887e-05
1.76449e-05
1.681e-05
1.48843e-05
1.92446e-05
2.03011e-05
1.89185e-05
1.5841e-05
1.50116e-05
1.56828e-05
1.45045e-05
1.65944e-05
1.98351e-05
1.47737e-05
1.49221e-05
1.39407e-05
1.25048e-05
1.15616e-05
1.41997e-05
1.74858e-05
1.70637e-05
1.66724e-05
1.75718e-05
1.49627e-05
1.70238e-05
2.08487e-05
2.0583e-05
1.71055e-05
1.56651e-05
1.63609e-05
1.74117e-05
1.61768e-05
1.43488e-05
1.12712e-05
1.16149e-05
1.28604e-05
1.23269e-05
1.05495e-05
1.30694e-05
1.60641e-05
1.66294e-05
1.66078e-05
1.63331e-05
1.3248e-05
1.58264e-05
2.11237e-05
2.28873e-05
1.89541e-05
1.5655e-05
1.56053e-05
1.7213e-05
1.70232e-05
1.39179e-05
1.37099e-05
1.39317e-05
1.46945e-05
1.4142e-05
1.35807e-05
1.26494e-05
1.2436e-05
1.56659e-05
1.67039e-05
1.60616e-05
1.37711e-05
1.21336e-05
1.64118e-05
1.7363e-05
1.6184e-05
1.5137e-05
1.51539e-05
1.51931e-05
1.51064e-05
1.45454e-05
1.32314e-05
1.47422e-05
1.51324e-05
1.4003e-05
1.36545e-05
1.36591e-05
1.33688e-05
1.29954e-05
1.31993e-05
1.23889e-05
1.10809e-05
9.91504e-06
1.45224e-05
1.74401e-05
1.50193e-05
1.10189e-05
1.06326e-05
1.09512e-05
1.13158e-05
1.2599e-05
4.53221e-05
4.59248e-05
4.28845e-05
4.03761e-05
3.97466e-05
4.09125e-05
4.41188e-05
4.90925e-05
5.36662e-05
5.59879e-05
5.61953e-05
5.43022e-05
4.94031e-05
4.13548e-05
3.27968e-05
2.87065e-05
2.9191e-05
3.15068e-05
3.5218e-05
4.05374e-05
3.59966e-05
3.69052e-05
4.64367e-05
3.6416e-05
3.74459e-05
4.08723e-05
4.23199e-05
4.79393e-05
5.06439e-05
5.83338e-05
5.5986e-05
5.51986e-05
5.36592e-05
4.40491e-05
3.04212e-05
2.91932e-05
2.65542e-05
2.67666e-05
2.76238e-05
4.03243e-05
4.30927e-05
4.78923e-05
3.97026e-05
3.84806e-05
3.78158e-05
3.69463e-05
3.63781e-05
3.54617e-05
3.71262e-05
4.09489e-05
4.86494e-05
5.2232e-05
5.36304e-05
5.38255e-05
3.52525e-05
3.5178e-05
2.66037e-05
2.62395e-05
2.62558e-05
3.08869e-05
2.83619e-05
3.12155e-05
3.3673e-05
3.57229e-05
3.71673e-05
3.84565e-05
3.5197e-05
2.28641e-05
1.68703e-05
1.80353e-05
1.81641e-05
1.727e-05
1.64659e-05
1.87805e-05
3.73742e-05
3.97185e-05
2.69274e-05
2.69358e-05
2.54494e-05
2.49356e-05
2.4653e-05
2.53757e-05
2.58285e-05
1.79621e-05
1.73557e-05
1.93462e-05
2.52562e-05
2.3475e-05
1.95775e-05
2.0285e-05
2.17754e-05
1.67707e-05
1.37817e-05
1.26333e-05
1.28127e-05
2.50471e-05
3.56402e-05
2.95368e-05
2.61398e-05
2.64579e-05
2.46733e-05
2.44812e-05
2.19773e-05
2.12089e-05
2.19243e-05
2.23008e-05
2.08498e-05
1.80669e-05
1.87767e-05
1.76915e-05
1.7924e-05
1.90971e-05
1.57724e-05
1.49591e-05
1.54492e-05
1.55695e-05
2.55479e-05
3.14965e-05
2.57133e-05
2.30183e-05
2.07055e-05
2.11947e-05
2.139e-05
2.12659e-05
1.89395e-05
2.07448e-05
1.79472e-05
1.93689e-05
2.03018e-05
1.78367e-05
1.46526e-05
1.36532e-05
1.75747e-05
1.85699e-05
1.69628e-05
1.63436e-05
1.8305e-05
2.26196e-05
2.52835e-05
2.27447e-05
2.57661e-05
2.25566e-05
2.15283e-05
2.02243e-05
1.91861e-05
1.80333e-05
1.74597e-05
1.76919e-05
1.85408e-05
1.85529e-05
1.52979e-05
1.44618e-05
1.75283e-05
1.97175e-05
1.73079e-05
1.60066e-05
1.55524e-05
1.55e-05
2.30807e-05
2.76266e-05
2.8521e-05
2.35506e-05
2.1372e-05
2.19053e-05
2.0577e-05
1.7724e-05
1.66082e-05
1.79815e-05
1.96684e-05
2.01196e-05
1.88641e-05
1.69749e-05
1.58857e-05
1.66778e-05
1.51523e-05
1.44047e-05
1.39675e-05
1.34261e-05
1.2081e-05
2.92584e-05
1.73292e-05
1.68198e-05
2.16942e-05
1.92888e-05
1.4444e-05
1.74842e-05
1.94974e-05
2.12889e-05
1.88228e-05
1.66658e-05
1.63481e-05
1.57947e-05
1.59639e-05
1.54075e-05
1.44571e-05
1.54226e-05
1.63416e-05
1.41074e-05
1.3364e-05
1.40379e-05
1.54203e-05
1.65997e-05
1.92184e-05
1.79057e-05
1.5929e-05
1.35879e-05
1.45922e-05
1.54203e-05
1.38895e-05
1.24057e-05
1.28416e-05
1.16568e-05
1.24106e-05
1.24227e-05
1.30648e-05
1.42977e-05
1.38089e-05
1.38302e-05
1.23908e-05
1.33654e-05
1.34865e-05
1.39379e-05
1.57043e-05
1.65126e-05
1.58799e-05
1.53869e-05
1.41993e-05
1.35259e-05
1.23391e-05
1.09863e-05
1.10415e-05
1.12877e-05
1.19257e-05
1.13406e-05
1.0563e-05
1.10073e-05
1.09204e-05
1.30141e-05
1.34779e-05
1.40397e-05
3.02412e-05
3.14343e-05
3.32703e-05
3.50572e-05
3.67519e-05
3.86434e-05
4.10526e-05
4.43997e-05
4.8301e-05
4.93872e-05
4.43274e-05
3.61302e-05
3.24369e-05
3.27729e-05
3.51211e-05
3.68816e-05
3.64631e-05
3.41893e-05
3.18799e-05
3.05387e-05
2.93221e-05
3.13365e-05
3.24517e-05
3.49692e-05
3.60272e-05
3.81085e-05
4.15959e-05
4.34537e-05
4.92748e-05
5.09639e-05
4.9352e-05
3.77308e-05
3.35004e-05
3.35111e-05
3.67679e-05
3.87297e-05
3.86319e-05
3.667e-05
3.24244e-05
2.96901e-05
2.59745e-05
2.67666e-05
2.84795e-05
3.05347e-05
3.13018e-05
3.28802e-05
3.50201e-05
3.67343e-05
3.99183e-05
4.24442e-05
4.86025e-05
5.06455e-05
4.39159e-05
3.81319e-05
3.49622e-05
3.81202e-05
4.28919e-05
4.19628e-05
3.1878e-05
2.77224e-05
2.25015e-05
2.20402e-05
2.3392e-05
2.40866e-05
2.40413e-05
2.40096e-05
2.40628e-05
2.36485e-05
2.13661e-05
2.01778e-05
1.96324e-05
3.435e-05
4.36107e-05
4.58279e-05
4.50848e-05
3.92888e-05
3.57717e-05
3.59494e-05
3.64848e-05
2.93265e-05
2.27822e-05
2.18886e-05
2.2728e-05
2.40078e-05
2.49357e-05
2.56956e-05
2.5773e-05
2.2509e-05
2.01193e-05
1.73953e-05
1.66134e-05
1.77375e-05
2.21292e-05
2.79933e-05
2.89873e-05
3.08026e-05
3.21277e-05
2.92919e-05
2.75569e-05
2.58151e-05
2.03562e-05
2.12192e-05
2.1305e-05
2.1682e-05
2.35692e-05
2.53447e-05
2.52922e-05
2.23681e-05
1.87064e-05
1.72953e-05
1.61747e-05
1.61531e-05
1.63008e-05
1.71264e-05
1.64152e-05
1.62922e-05
1.96266e-05
2.03169e-05
2.02003e-05
2.11588e-05
2.28751e-05
2.0927e-05
1.9965e-05
1.98389e-05
2.0366e-05
2.10469e-05
2.17488e-05
1.97455e-05
1.71027e-05
1.57132e-05
1.5426e-05
1.70807e-05
1.80974e-05
1.77616e-05
1.72273e-05
1.61699e-05
1.52676e-05
1.5203e-05
1.65448e-05
2.03135e-05
2.36426e-05
2.26474e-05
2.48209e-05
2.68318e-05
2.55438e-05
2.20053e-05
2.1017e-05
1.92746e-05
1.67855e-05
1.71778e-05
1.8366e-05
2.00752e-05
2.03223e-05
1.81557e-05
1.63351e-05
1.61608e-05
1.49046e-05
1.29953e-05
1.54614e-05
1.99314e-05
2.58617e-05
2.69295e-05
2.31707e-05
2.01923e-05
1.96192e-05
2.20184e-05
2.28696e-05
2.10661e-05
1.97295e-05
1.91657e-05
2.07582e-05
2.14312e-05
2.06259e-05
1.81857e-05
1.74446e-05
1.70922e-05
1.61248e-05
1.39564e-05
1.20063e-05
1.70031e-05
1.58593e-05
2.02352e-05
2.09324e-05
1.93482e-05
1.86611e-05
1.68391e-05
1.82801e-05
2.3078e-05
2.47409e-05
2.33689e-05
2.12911e-05
1.79376e-05
1.68858e-05
1.61279e-05
1.59873e-05
1.62812e-05
1.53111e-05
1.36505e-05
1.28833e-05
1.35499e-05
1.21862e-05
2.12853e-05
2.23109e-05
2.07067e-05
1.8564e-05
1.68791e-05
1.54621e-05
2.01652e-05
2.68098e-05
2.76147e-05
2.46571e-05
1.93115e-05
1.73202e-05
1.703e-05
1.50721e-05
1.24626e-05
1.20314e-05
1.14973e-05
1.09379e-05
1.0973e-05
1.12495e-05
1.16296e-05
1.36262e-05
1.62044e-05
1.58315e-05
1.48912e-05
1.48945e-05
1.44377e-05
1.41387e-05
1.54271e-05
1.50039e-05
1.48707e-05
1.4336e-05
1.33138e-05
1.1998e-05
1.17447e-05
1.18788e-05
1.18415e-05
1.18456e-05
1.18371e-05
2.68131e-05
2.76972e-05
2.92836e-05
3.07892e-05
3.19838e-05
3.29979e-05
3.37789e-05
3.42746e-05
3.48784e-05
3.46387e-05
3.27291e-05
3.11439e-05
3.17057e-05
3.33453e-05
3.46614e-05
3.43688e-05
3.20117e-05
2.97017e-05
2.82657e-05
2.7121e-05
2.6675e-05
2.73486e-05
2.87661e-05
3.02088e-05
3.16128e-05
3.31897e-05
3.4666e-05
3.55177e-05
3.69758e-05
3.71854e-05
3.4069e-05
3.23936e-05
3.29463e-05
3.44678e-05
3.71037e-05
3.78403e-05
3.54442e-05
2.94652e-05
2.80114e-05
2.66706e-05
2.47186e-05
2.49322e-05
2.59484e-05
2.74558e-05
2.88225e-05
3.01771e-05
3.45246e-05
3.60402e-05
3.81533e-05
4.01783e-05
4.03846e-05
3.62869e-05
3.4557e-05
3.65571e-05
4.05002e-05
4.30961e-05
4.16797e-05
3.58956e-05
2.82874e-05
2.55305e-05
2.36351e-05
2.19115e-05
2.1175e-05
2.07387e-05
2.09621e-05
2.19906e-05
2.2992e-05
2.70623e-05
2.99093e-05
3.24942e-05
3.28697e-05
4.13656e-05
4.19675e-05
4.00989e-05
3.88782e-05
3.80106e-05
3.99809e-05
4.29481e-05
3.50773e-05
2.48065e-05
2.44882e-05
2.32476e-05
2.14257e-05
1.9424e-05
1.99481e-05
2.08501e-05
2.19183e-05
2.21541e-05
2.24319e-05
2.3744e-05
2.50328e-05
2.82671e-05
3.3773e-05
3.46745e-05
3.29427e-05
2.80312e-05
2.77944e-05
3.05578e-05
3.35071e-05
2.68685e-05
2.19761e-05
2.25138e-05
2.17938e-05
1.89428e-05
1.94753e-05
2.10319e-05
2.31606e-05
2.30553e-05
2.0543e-05
1.82012e-05
1.78391e-05
1.96141e-05
2.16427e-05
2.16963e-05
1.79741e-05
1.7254e-05
1.65186e-05
1.94855e-05
2.54231e-05
2.57891e-05
2.71931e-05
2.14668e-05
2.05266e-05
1.95507e-05
1.96786e-05
2.11524e-05
2.34955e-05
2.28694e-05
1.96235e-05
1.81316e-05
1.81105e-05
2.03023e-05
2.0553e-05
1.99884e-05
1.6852e-05
1.60815e-05
1.53035e-05
1.48209e-05
1.47883e-05
2.89485e-05
2.3757e-05
2.3891e-05
2.5614e-05
2.68567e-05
2.65559e-05
2.3204e-05
2.31268e-05
2.30167e-05
1.84402e-05
1.88385e-05
2.03301e-05
2.05044e-05
1.9542e-05
1.9e-05
1.71966e-05
1.63358e-05
1.57581e-05
1.49154e-05
1.3868e-05
1.64978e-05
2.10628e-05
2.33939e-05
2.16386e-05
2.0723e-05
2.01998e-05
2.47079e-05
2.56625e-05
2.21518e-05
1.92382e-05
1.87331e-05
2.02141e-05
2.09174e-05
1.89478e-05
1.74936e-05
1.69812e-05
1.70163e-05
1.6924e-05
1.48602e-05
1.39944e-05
1.19125e-05
1.61003e-05
1.97678e-05
1.94997e-05
1.99758e-05
2.05518e-05
2.04231e-05
2.48457e-05
2.52385e-05
2.43639e-05
2.4857e-05
2.28474e-05
1.78164e-05
1.66905e-05
1.63859e-05
1.69805e-05
1.78895e-05
1.74961e-05
1.44728e-05
1.3756e-05
1.43197e-05
1.82963e-05
2.14001e-05
2.22892e-05
2.02081e-05
1.83052e-05
1.63464e-05
1.66727e-05
2.75188e-05
3.02297e-05
2.94849e-05
2.46859e-05
2.15368e-05
2.11298e-05
1.8418e-05
1.60376e-05
1.39148e-05
1.34141e-05
1.23661e-05
1.15848e-05
1.25248e-05
1.23516e-05
1.23492e-05
1.44979e-05
1.64496e-05
1.59436e-05
1.49645e-05
1.44341e-05
1.40477e-05
2.09775e-05
2.30186e-05
2.11086e-05
1.8633e-05
1.73052e-05
1.50104e-05
1.3268e-05
1.23005e-05
1.24552e-05
1.26379e-05
1.28082e-05
1.28482e-05
3.02903e-05
2.98914e-05
2.85751e-05
2.65537e-05
2.52938e-05
2.51412e-05
2.5083e-05
2.47961e-05
2.49274e-05
2.54411e-05
2.60464e-05
2.66791e-05
2.76255e-05
2.87372e-05
2.95734e-05
2.98425e-05
3.00125e-05
3.0705e-05
3.09733e-05
3.06404e-05
3.30897e-05
3.15403e-05
2.98752e-05
2.72636e-05
2.58041e-05
2.54507e-05
3.01599e-05
2.49574e-05
2.51754e-05
2.55522e-05
3.07108e-05
3.12626e-05
3.12647e-05
2.96534e-05
3.00261e-05
3.32349e-05
3.06402e-05
3.04263e-05
3.08571e-05
3.12793e-05
3.31828e-05
3.40336e-05
3.21127e-05
2.9025e-05
2.82133e-05
2.66538e-05
2.65516e-05
2.72086e-05
2.66658e-05
2.6812e-05
2.75583e-05
2.9184e-05
2.95033e-05
2.95119e-05
3.1753e-05
3.26203e-05
3.2563e-05
2.86508e-05
3.03652e-05
3.21643e-05
2.78246e-05
2.66888e-05
2.84898e-05
3.03392e-05
3.18208e-05
2.70959e-05
2.59648e-05
2.24778e-05
2.53739e-05
2.54891e-05
2.60073e-05
2.88148e-05
2.92243e-05
2.63643e-05
3.433e-05
2.98161e-05
2.95083e-05
2.98732e-05
2.76797e-05
2.93172e-05
3.19138e-05
2.85561e-05
2.28327e-05
2.22481e-05
2.81934e-05
3.3944e-05
3.40967e-05
2.37067e-05
2.35223e-05
2.64695e-05
2.78298e-05
2.89062e-05
2.89354e-05
2.86825e-05
3.1017e-05
3.19279e-05
2.9667e-05
3.00941e-05
2.92123e-05
3.13994e-05
2.49443e-05
2.21312e-05
1.98725e-05
1.91938e-05
1.84439e-05
2.12779e-05
2.73274e-05
2.85724e-05
2.3702e-05
2.3579e-05
2.55754e-05
3.03992e-05
2.88889e-05
2.67048e-05
2.36463e-05
2.49119e-05
2.81163e-05
2.74815e-05
2.53598e-05
2.62588e-05
2.47189e-05
2.31945e-05
1.96872e-05
1.77277e-05
1.85318e-05
2.06663e-05
2.08614e-05
2.41222e-05
2.27259e-05
2.30873e-05
2.57686e-05
2.50763e-05
2.27178e-05
2.31631e-05
2.01546e-05
1.78147e-05
1.84857e-05
2.23991e-05
2.72058e-05
2.58057e-05
2.36746e-05
2.16398e-05
2.05123e-05
2.01029e-05
2.15102e-05
2.0044e-05
2.08809e-05
2.3734e-05
2.67538e-05
2.64801e-05
2.4471e-05
2.09461e-05
1.67647e-05
1.53509e-05
1.6225e-05
1.67622e-05
1.64226e-05
1.63906e-05
1.85924e-05
2.26423e-05
1.84759e-05
1.94502e-05
1.90787e-05
2.07204e-05
2.21722e-05
2.25885e-05
2.30184e-05
2.45598e-05
2.58365e-05
2.60082e-05
2.55425e-05
2.1115e-05
1.82581e-05
1.56436e-05
1.55373e-05
1.50738e-05
1.51601e-05
1.52054e-05
1.5377e-05
1.41609e-05
1.65938e-05
1.96081e-05
1.91378e-05
2.39806e-05
2.61064e-05
2.57299e-05
2.46424e-05
2.76158e-05
3.22829e-05
3.07875e-05
2.67983e-05
2.23432e-05
2.16198e-05
1.71515e-05
1.65203e-05
1.60617e-05
1.84055e-05
1.84231e-05
1.86167e-05
1.51415e-05
1.99353e-05
2.03304e-05
1.95263e-05
2.04427e-05
2.13623e-05
2.04149e-05
2.30941e-05
2.90556e-05
3.21794e-05
3.10705e-05
2.79346e-05
2.40348e-05
2.37035e-05
1.98186e-05
1.69311e-05
1.54296e-05
1.89158e-05
1.94714e-05
1.85154e-05
1.90038e-05
1.40008e-05
1.45094e-05
1.60573e-05
1.7764e-05
1.77566e-05
1.70989e-05
1.68986e-05
1.68044e-05
2.26848e-05
2.58565e-05
2.8196e-05
2.47899e-05
1.86283e-05
1.56741e-05
1.34579e-05
1.18607e-05
1.4268e-05
1.65581e-05
1.67099e-05
1.49035e-05
2.79812e-05
2.94339e-05
3.20488e-05
3.34585e-05
3.21781e-05
2.92479e-05
2.73949e-05
2.82149e-05
2.92546e-05
2.94702e-05
2.88307e-05
2.7955e-05
2.77367e-05
2.78352e-05
2.75451e-05
2.69287e-05
2.73198e-05
2.83318e-05
2.83506e-05
2.78852e-05
2.82189e-05
3.0384e-05
3.3277e-05
3.46712e-05
3.43859e-05
3.23505e-05
2.87239e-05
2.85962e-05
2.95128e-05
2.97562e-05
2.94488e-05
2.87155e-05
2.83211e-05
2.81672e-05
2.76522e-05
2.7277e-05
2.79325e-05
2.99177e-05
2.97693e-05
2.83087e-05
2.84502e-05
2.89149e-05
3.04248e-05
3.51723e-05
3.78124e-05
3.82405e-05
3.43105e-05
2.7828e-05
2.82163e-05
3.004e-05
3.0451e-05
2.96917e-05
2.78966e-05
2.77054e-05
2.81058e-05
2.83809e-05
2.95066e-05
3.22223e-05
3.29296e-05
3.01163e-05
3.05545e-05
2.59307e-05
2.55261e-05
2.65877e-05
2.80825e-05
3.06342e-05
3.67015e-05
3.73586e-05
2.84095e-05
2.62663e-05
2.82559e-05
2.89907e-05
2.85822e-05
2.69411e-05
2.59085e-05
2.66429e-05
3.03605e-05
3.09044e-05
3.11107e-05
3.35517e-05
2.76201e-05
2.7262e-05
2.39305e-05
2.2438e-05
2.5093e-05
2.82786e-05
3.08308e-05
3.7264e-05
3.32164e-05
2.44264e-05
2.46761e-05
2.49108e-05
2.37987e-05
2.61735e-05
2.7121e-05
2.74834e-05
2.95017e-05
3.16502e-05
2.83136e-05
2.52482e-05
2.12301e-05
2.25065e-05
2.54528e-05
2.4669e-05
2.24367e-05
2.81382e-05
2.95233e-05
2.85671e-05
2.98687e-05
2.46542e-05
2.20096e-05
2.0331e-05
2.1126e-05
2.08265e-05
2.43736e-05
2.67523e-05
2.9189e-05
3.11639e-05
3.18119e-05
2.85322e-05
2.32033e-05
2.11326e-05
2.08905e-05
1.9823e-05
2.07018e-05
2.32636e-05
2.3296e-05
2.22174e-05
2.41572e-05
2.83295e-05
2.52978e-05
2.15706e-05
2.20107e-05
2.13043e-05
2.07308e-05
2.36736e-05
2.41853e-05
2.37243e-05
2.41316e-05
2.63508e-05
2.06802e-05
2.05675e-05
2.05469e-05
1.98601e-05
1.95219e-05
1.94773e-05
2.02348e-05
2.24746e-05
2.17622e-05
2.37876e-05
2.65033e-05
2.63526e-05
2.24599e-05
1.97074e-05
1.63439e-05
1.56266e-05
1.75957e-05
1.83025e-05
1.87254e-05
1.9106e-05
1.87986e-05
2.00236e-05
1.93151e-05
1.77037e-05
2.12383e-05
2.15767e-05
2.21751e-05
2.03428e-05
2.10946e-05
2.15345e-05
2.04728e-05
2.02703e-05
1.93099e-05
1.65312e-05
1.38213e-05
1.27548e-05
1.4454e-05
1.61691e-05
1.58123e-05
1.56534e-05
1.8676e-05
2.02648e-05
1.71208e-05
1.52495e-05
1.50192e-05
1.95321e-05
1.98942e-05
1.84352e-05
1.78042e-05
1.70735e-05
1.57359e-05
1.74163e-05
2.01882e-05
1.86488e-05
1.51359e-05
1.44426e-05
1.66894e-05
1.74367e-05
1.67382e-05
1.5987e-05
1.92396e-05
1.75766e-05
1.63724e-05
1.60543e-05
1.6506e-05
1.75434e-05
1.6333e-05
1.45393e-05
1.37721e-05
1.50889e-05
1.53175e-05
1.44997e-05
1.45785e-05
1.59958e-05
1.57561e-05
1.43239e-05
1.49209e-05
1.72317e-05
1.93152e-05
2.0519e-05
1.69056e-05
1.64452e-05
1.53607e-05
1.50415e-05
1.5382e-05
1.53246e-05
1.43856e-05
1.36734e-05
1.3774e-05
1.37635e-05
1.52752e-05
1.53967e-05
1.3869e-05
1.41229e-05
1.51038e-05
1.38817e-05
1.31554e-05
1.4615e-05
1.76177e-05
1.72675e-05
3.39309e-05
3.6888e-05
4.11469e-05
4.44009e-05
4.42565e-05
3.91938e-05
3.30799e-05
3.16188e-05
3.14978e-05
3.17852e-05
3.24535e-05
3.27618e-05
3.28601e-05
3.22156e-05
3.07721e-05
3.07222e-05
3.30773e-05
3.56695e-05
3.51456e-05
3.34009e-05
3.36716e-05
3.76949e-05
4.00927e-05
4.40547e-05
4.61244e-05
4.41373e-05
3.68583e-05
3.3e-05
3.15041e-05
3.1358e-05
3.18467e-05
3.23669e-05
3.32898e-05
3.30317e-05
3.14927e-05
3.13844e-05
3.32335e-05
3.76685e-05
3.73299e-05
3.43477e-05
3.25899e-05
3.34225e-05
3.59812e-05
3.86818e-05
4.23768e-05
4.70106e-05
4.57456e-05
3.64201e-05
3.12352e-05
2.92263e-05
2.88977e-05
2.93878e-05
3.0153e-05
3.16347e-05
3.24152e-05
3.14755e-05
3.21417e-05
3.65329e-05
3.85422e-05
3.68682e-05
3.16541e-05
2.8921e-05
2.88077e-05
2.73302e-05
2.56652e-05
2.39319e-05
3.77332e-05
4.01616e-05
3.21137e-05
2.86856e-05
2.57935e-05
2.76137e-05
2.86969e-05
2.84361e-05
2.75816e-05
2.90248e-05
2.99066e-05
2.92044e-05
2.69879e-05
3.10347e-05
2.4429e-05
2.65259e-05
2.43304e-05
2.38822e-05
2.35174e-05
2.39233e-05
2.36908e-05
2.93005e-05
3.35809e-05
2.79411e-05
2.50943e-05
2.47805e-05
2.34945e-05
2.56366e-05
2.77842e-05
2.70775e-05
2.66971e-05
2.59782e-05
2.3727e-05
2.05933e-05
1.89329e-05
1.91059e-05
2.1066e-05
2.22875e-05
2.13175e-05
2.25161e-05
2.5637e-05
2.2311e-05
2.69241e-05
2.90325e-05
2.55322e-05
2.10285e-05
2.03003e-05
2.06212e-05
2.30796e-05
2.53461e-05
2.73331e-05
2.9125e-05
2.88673e-05
2.23265e-05
2.08376e-05
2.14557e-05
2.1066e-05
1.94217e-05
1.8386e-05
2.01251e-05
2.21352e-05
2.08067e-05
1.89076e-05
2.57406e-05
2.52722e-05
2.25578e-05
2.3125e-05
2.34345e-05
2.14649e-05
1.97395e-05
2.11098e-05
2.5559e-05
2.66871e-05
2.45547e-05
1.98634e-05
2.02593e-05
2.12841e-05
1.90053e-05
1.80275e-05
1.87076e-05
1.92096e-05
2.39555e-05
2.41343e-05
2.35082e-05
2.50364e-05
2.50361e-05
2.37183e-05
2.32716e-05
2.16608e-05
1.68008e-05
1.60927e-05
1.85203e-05
2.08348e-05
2.03673e-05
1.9798e-05
1.86776e-05
1.79336e-05
1.70714e-05
1.83507e-05
2.28729e-05
2.27887e-05
2.15191e-05
2.0601e-05
2.00898e-05
2.06114e-05
2.16015e-05
1.96644e-05
1.46857e-05
1.29916e-05
1.4169e-05
1.58935e-05
1.8407e-05
1.9015e-05
1.74938e-05
2.03757e-05
1.93996e-05
1.49451e-05
1.25293e-05
1.21303e-05
1.56303e-05
1.72652e-05
1.68777e-05
1.64872e-05
1.45441e-05
1.49015e-05
1.75518e-05
1.93706e-05
1.81315e-05
1.28901e-05
1.29172e-05
1.7176e-05
1.92861e-05
2.01832e-05
1.99441e-05
1.77904e-05
1.74151e-05
1.61197e-05
1.47456e-05
1.49018e-05
1.58066e-05
1.51313e-05
1.42314e-05
1.36358e-05
1.39653e-05
1.34265e-05
1.23457e-05
1.60823e-05
1.76018e-05
1.49176e-05
1.24822e-05
1.3614e-05
1.70685e-05
1.81357e-05
1.83078e-05
1.84864e-05
1.75801e-05
1.57126e-05
1.45109e-05
1.43615e-05
1.42638e-05
1.3888e-05
1.36003e-05
1.45323e-05
1.46717e-05
1.41669e-05
1.41315e-05
1.41383e-05
1.6886e-05
1.56779e-05
1.32826e-05
1.20826e-05
1.3013e-05
1.74781e-05
1.89403e-05
5.6953e-05
5.21641e-05
4.12167e-05
4.39837e-05
4.99728e-05
5.54012e-05
6.00957e-05
5.83932e-05
5.00085e-05
4.17048e-05
3.5815e-05
3.32185e-05
3.31209e-05
3.5636e-05
4.04897e-05
4.64823e-05
5.24941e-05
5.69236e-05
5.86927e-05
5.75467e-05
5.83247e-05
5.19021e-05
4.08465e-05
4.40931e-05
4.84079e-05
5.38078e-05
5.93017e-05
6.06198e-05
5.01793e-05
4.25079e-05
3.58192e-05
3.35646e-05
3.34249e-05
3.48032e-05
3.83756e-05
4.32695e-05
4.88769e-05
5.32638e-05
5.64248e-05
5.70913e-05
4.49249e-05
5.311e-05
4.3255e-05
3.35113e-05
3.82276e-05
4.22295e-05
4.43854e-05
4.79356e-05
5.15452e-05
4.83219e-05
3.98948e-05
3.2972e-05
3.23367e-05
3.22602e-05
3.26866e-05
3.28892e-05
3.32469e-05
3.57926e-05
4.00808e-05
4.69997e-05
2.00889e-05
2.35845e-05
3.61571e-05
3.35563e-05
2.82428e-05
2.71315e-05
2.68544e-05
2.6537e-05
2.74772e-05
2.90572e-05
3.01873e-05
2.75138e-05
2.29221e-05
2.37849e-05
2.50176e-05
2.43687e-05
1.83315e-05
1.7199e-05
1.73191e-05
1.62802e-05
1.43106e-05
1.6716e-05
2.85414e-05
3.69935e-05
3.39002e-05
3.18118e-05
3.00304e-05
2.56352e-05
2.35449e-05
2.25351e-05
1.98166e-05
1.99012e-05
1.93243e-05
1.8158e-05
1.8964e-05
1.86399e-05
1.63061e-05
1.76427e-05
1.71889e-05
1.59136e-05
1.59049e-05
1.7018e-05
1.90001e-05
2.85849e-05
3.27257e-05
3.19568e-05
2.97564e-05
2.62122e-05
2.38996e-05
2.24933e-05
2.04789e-05
2.07526e-05
2.32865e-05
2.05553e-05
1.85983e-05
1.82137e-05
1.69066e-05
2.03837e-05
2.07993e-05
1.71391e-05
1.61628e-05
1.85557e-05
1.77709e-05
1.76799e-05
1.81535e-05
2.042e-05
1.92745e-05
1.93815e-05
2.13885e-05
2.52331e-05
2.43298e-05
2.51259e-05
2.82678e-05
3.24475e-05
2.59055e-05
1.88135e-05
1.81346e-05
1.91754e-05
2.09755e-05
1.78766e-05
1.65988e-05
1.62199e-05
1.72613e-05
1.81649e-05
1.77596e-05
1.57325e-05
1.32707e-05
1.49115e-05
1.67067e-05
2.35513e-05
2.74448e-05
2.4156e-05
2.21077e-05
2.97258e-05
3.47141e-05
2.55677e-05
2.15222e-05
2.09387e-05
2.13455e-05
1.99413e-05
1.65419e-05
1.54382e-05
1.53886e-05
1.64093e-05
1.54711e-05
1.08884e-05
1.11091e-05
1.15948e-05
1.20586e-05
1.25015e-05
1.88333e-05
1.9456e-05
1.72714e-05
1.55054e-05
1.8117e-05
1.99193e-05
2.00702e-05
2.03917e-05
2.12303e-05
2.06212e-05
1.5469e-05
1.64834e-05
1.63419e-05
1.50417e-05
1.17328e-05
1.06904e-05
9.77968e-06
1.03787e-05
1.14929e-05
1.13604e-05
1.19102e-05
1.59701e-05
1.5359e-05
1.41537e-05
1.22981e-05
1.57786e-05
1.6811e-05
1.80269e-05
1.83118e-05
1.77466e-05
1.5928e-05
1.68423e-05
1.52822e-05
1.38746e-05
1.20916e-05
1.16738e-05
1.17123e-05
1.18266e-05
1.28729e-05
1.38186e-05
1.3667e-05
1.3239e-05
1.48221e-05
1.49406e-05
1.39373e-05
1.3838e-05
1.37088e-05
1.44882e-05
1.58504e-05
1.45673e-05
1.49587e-05
1.47944e-05
1.46641e-05
1.38426e-05
1.17038e-05
1.13069e-05
1.36359e-05
1.66152e-05
1.82297e-05
1.84522e-05
1.81334e-05
1.61293e-05
1.54642e-05
1.61808e-05
1.52452e-05
1.32122e-05
1.1913e-05
1.09928e-05
1.24262e-05
1.55014e-05
3.46996e-05
3.71241e-05
3.56452e-05
2.94202e-05
2.8606e-05
3.11327e-05
3.39771e-05
3.58533e-05
3.72053e-05
3.87659e-05
3.95505e-05
4.04157e-05
4.28341e-05
4.45868e-05
4.25703e-05
3.92206e-05
3.91099e-05
3.92492e-05
3.74755e-05
3.46008e-05
3.49635e-05
3.97882e-05
4.01444e-05
3.1693e-05
2.97666e-05
3.21957e-05
3.54945e-05
3.68171e-05
3.76465e-05
3.89182e-05
3.98692e-05
4.14711e-05
4.2963e-05
4.51206e-05
4.24707e-05
4.03292e-05
4.05684e-05
4.10347e-05
3.96589e-05
3.66938e-05
3.45996e-05
3.67371e-05
4.54559e-05
3.61019e-05
2.91656e-05
3.16124e-05
3.51258e-05
3.71671e-05
3.7148e-05
3.55048e-05
3.66462e-05
4.00823e-05
4.09863e-05
4.14216e-05
4.18606e-05
4.21595e-05
4.20544e-05
4.22975e-05
4.10619e-05
4.04974e-05
3.67803e-05
3.38452e-05
3.08263e-05
3.73545e-05
3.78986e-05
2.83211e-05
2.99268e-05
3.30499e-05
3.36885e-05
3.17659e-05
3.06334e-05
2.96182e-05
2.92797e-05
2.82953e-05
2.65828e-05
3.06133e-05
3.38087e-05
3.41925e-05
3.59688e-05
3.49615e-05
2.80486e-05
3.65317e-05
3.60192e-05
3.23707e-05
3.55128e-05
2.92053e-05
3.03917e-05
3.36672e-05
3.03872e-05
2.89665e-05
2.81346e-05
2.596e-05
2.21512e-05
2.08839e-05
1.91067e-05
1.90671e-05
2.22137e-05
2.24887e-05
2.21609e-05
2.71759e-05
2.18483e-05
2.32563e-05
2.68066e-05
2.55617e-05
3.03301e-05
3.62021e-05
3.29857e-05
3.40751e-05
2.86674e-05
2.75362e-05
2.68501e-05
2.3393e-05
2.39097e-05
1.98097e-05
1.85723e-05
1.73372e-05
1.68274e-05
1.87508e-05
1.90237e-05
1.8365e-05
1.92984e-05
2.07654e-05
1.78355e-05
1.7498e-05
1.61891e-05
3.83621e-05
4.28528e-05
4.15002e-05
3.17045e-05
2.87309e-05
2.65336e-05
2.44924e-05
3.24824e-05
3.80777e-05
2.51696e-05
1.7523e-05
1.72933e-05
1.91713e-05
2.04074e-05
1.87641e-05
2.11994e-05
2.15785e-05
2.07858e-05
1.82757e-05
1.71023e-05
1.5449e-05
2.45132e-05
2.95802e-05
3.56277e-05
3.368e-05
2.95813e-05
2.69011e-05
2.7568e-05
3.42485e-05
3.83375e-05
2.40849e-05
2.48304e-05
2.55478e-05
2.23547e-05
2.10799e-05
1.66873e-05
1.92045e-05
2.12618e-05
1.88714e-05
1.45643e-05
1.14087e-05
1.33602e-05
1.3892e-05
1.30914e-05
1.62747e-05
2.27937e-05
2.66827e-05
2.46584e-05
1.59961e-05
2.28303e-05
2.63115e-05
2.37093e-05
2.0777e-05
2.02258e-05
2.02269e-05
1.46358e-05
1.70267e-05
1.96268e-05
1.62652e-05
1.3181e-05
1.1495e-05
9.92905e-06
9.96584e-06
1.06384e-05
1.04166e-05
1.27374e-05
1.39016e-05
1.36216e-05
1.27639e-05
1.46938e-05
2.40982e-05
2.29211e-05
1.91212e-05
1.87146e-05
1.71384e-05
1.3319e-05
1.75805e-05
1.84219e-05
1.56513e-05
1.4113e-05
1.1832e-05
1.15331e-05
1.20947e-05
1.32082e-05
1.32031e-05
1.18367e-05
1.14877e-05
1.31967e-05
1.33738e-05
1.79458e-05
2.11331e-05
1.97349e-05
1.79409e-05
1.5979e-05
1.40159e-05
1.34032e-05
1.43597e-05
1.49444e-05
1.38078e-05
1.22491e-05
1.17559e-05
1.30103e-05
1.49498e-05
1.59904e-05
1.64689e-05
1.76398e-05
1.66741e-05
1.62194e-05
1.62594e-05
1.55315e-05
1.40259e-05
1.20816e-05
1.09495e-05
1.11454e-05
1.32295e-05
4.01951e-05
4.54575e-05
4.57e-05
3.84989e-05
3.84841e-05
4.37122e-05
4.81002e-05
4.85185e-05
4.91586e-05
5.11593e-05
5.13955e-05
4.96129e-05
4.88792e-05
4.90593e-05
4.52292e-05
3.67261e-05
3.29171e-05
3.29348e-05
3.33688e-05
3.52954e-05
3.79316e-05
4.56931e-05
4.81114e-05
4.07641e-05
3.96301e-05
4.34272e-05
4.89829e-05
5.10528e-05
5.03101e-05
5.05849e-05
5.07094e-05
5.00913e-05
4.98608e-05
5.01369e-05
4.8732e-05
4.06263e-05
3.49741e-05
3.49939e-05
3.41875e-05
3.4348e-05
3.29574e-05
3.5604e-05
4.29266e-05
4.04863e-05
3.65e-05
3.96015e-05
4.57272e-05
5.26478e-05
5.26148e-05
4.26066e-05
4.27451e-05
4.75781e-05
4.84482e-05
4.79554e-05
4.89074e-05
4.74849e-05
4.11957e-05
4.04608e-05
3.63465e-05
3.36595e-05
3.23301e-05
3.14198e-05
2.85487e-05
3.06982e-05
3.49793e-05
3.12629e-05
3.24812e-05
3.57308e-05
3.49976e-05
3.28348e-05
2.84203e-05
2.4922e-05
2.8592e-05
2.70327e-05
2.64123e-05
3.33058e-05
4.45693e-05
4.22163e-05
4.23695e-05
3.79891e-05
3.24165e-05
3.16638e-05
3.02272e-05
2.52033e-05
3.2684e-05
3.53174e-05
3.15646e-05
3.038e-05
2.70735e-05
2.47324e-05
2.64443e-05
2.36547e-05
2.14646e-05
1.79126e-05
1.7058e-05
1.77091e-05
2.37359e-05
2.64649e-05
2.93039e-05
3.21681e-05
2.48286e-05
2.84807e-05
2.94084e-05
2.5705e-05
2.60445e-05
3.23975e-05
3.28178e-05
2.8419e-05
2.76163e-05
2.32904e-05
2.40728e-05
2.447e-05
2.10993e-05
1.82365e-05
1.79168e-05
1.80117e-05
1.82265e-05
1.90658e-05
2.06215e-05
2.03715e-05
2.40176e-05
2.39374e-05
2.09961e-05
1.75814e-05
1.64374e-05
2.72067e-05
3.44898e-05
3.61998e-05
3.56055e-05
3.26306e-05
2.39976e-05
2.33819e-05
3.08357e-05
2.93937e-05
1.99373e-05
2.01162e-05
2.08263e-05
2.19075e-05
2.06569e-05
2.05343e-05
2.50722e-05
2.47782e-05
2.28389e-05
1.78934e-05
1.6303e-05
1.51548e-05
1.80982e-05
2.72766e-05
3.2861e-05
3.02758e-05
2.6913e-05
2.26552e-05
2.21517e-05
3.20816e-05
3.10091e-05
2.32282e-05
2.84212e-05
2.50882e-05
2.08518e-05
2.12281e-05
1.49481e-05
2.40126e-05
2.36908e-05
2.07242e-05
1.58511e-05
1.37044e-05
1.30153e-05
1.42285e-05
1.33179e-05
1.29296e-05
2.197e-05
2.53111e-05
2.24628e-05
2.12083e-05
2.75454e-05
2.59738e-05
2.30919e-05
1.97939e-05
1.91918e-05
2.02845e-05
1.30465e-05
1.84164e-05
2.23125e-05
1.83073e-05
1.41171e-05
1.21175e-05
1.12153e-05
1.01558e-05
1.04289e-05
1.06147e-05
1.33726e-05
1.50216e-05
1.41972e-05
1.30677e-05
1.89795e-05
2.33262e-05
2.04141e-05
1.84269e-05
1.65937e-05
1.50338e-05
1.19515e-05
1.30773e-05
1.69736e-05
1.69046e-05
1.45841e-05
1.26257e-05
1.19287e-05
1.26669e-05
1.29569e-05
1.25874e-05
1.20475e-05
1.19842e-05
1.29329e-05
1.29582e-05
2.04689e-05
2.24525e-05
2.01365e-05
1.82512e-05
1.56568e-05
1.4331e-05
1.26771e-05
1.30803e-05
1.40605e-05
1.39406e-05
1.28737e-05
1.23506e-05
1.24984e-05
1.42984e-05
1.53971e-05
1.58243e-05
1.57052e-05
1.4983e-05
1.514e-05
1.63546e-05
1.65061e-05
1.54836e-05
1.19159e-05
1.11749e-05
1.21072e-05
1.28947e-05
4.02653e-05
3.8271e-05
4.02686e-05
4.56891e-05
5.3415e-05
6.33531e-05
7.39524e-05
7.25119e-05
5.93111e-05
5.50123e-05
5.81243e-05
6.07476e-05
5.75921e-05
4.93135e-05
4.41552e-05
4.16373e-05
3.80087e-05
3.70242e-05
3.80172e-05
4.01386e-05
4.1939e-05
3.90494e-05
4.12309e-05
4.92732e-05
5.22026e-05
5.79293e-05
6.92193e-05
7.04415e-05
5.72699e-05
5.53488e-05
5.6566e-05
5.80752e-05
5.52865e-05
5.26126e-05
4.74145e-05
4.66386e-05
3.78193e-05
3.58231e-05
3.65463e-05
4.13582e-05
3.87729e-05
4.13603e-05
3.68431e-05
3.92589e-05
4.05613e-05
4.15061e-05
4.3218e-05
4.68208e-05
5.45362e-05
5.09544e-05
4.94689e-05