/*--------------------------------*- C++ -*----------------------------------*\
| =========                 |                                                 |
| \\      /  F ield         | OpenFOAM: The Open Source CFD Toolbox           |
|  \\    /   O peration     | Version:  5.0                                   |
|   \\  /    A nd           | Web:      www.OpenFOAM.org                      |
|    \\/     M anipulation  |                                                 |
\*---------------------------------------------------------------------------*/
FoamFile
{
    version     2.0;
    format      ascii;
    class       volScalarField;
    location    "0";
    object      p;
}
// * * * * * * * * * * * * * * * * * * * * * * * * * * * * * * * * * * * * * //

dimensions      [0 2 -2 0 0 0 0];

internalField   nonuniform List<scalar> 
7200
(
-2.97496e-05
4.41264e-05
9.67707e-05
3.13902e-05
2.62419e-05
0.000137391
0.000102942
2.60808e-05
-6.36679e-05
-0.000103397
-1.84614e-05
6.78693e-05
4.88966e-05
9.91062e-05
0.000175179
0.000156242
0.000135579
5.86534e-05
-8.76761e-05
-0.000157576
-3.35838e-05
4.25641e-05
9.58233e-05
1.98458e-06
7.29965e-05
0.000137565
0.000103656
2.67291e-05
-9.08275e-05
-8.74643e-05
-1.95678e-05
6.88813e-05
4.64405e-05
9.64964e-05
0.000174852
0.000157271
0.000110104
5.84152e-05
-8.99789e-05
-0.000135541
-3.77927e-06
3.78328e-05
9.32367e-05
2.68669e-05
6.74178e-05
0.000144929
7.51954e-05
2.88712e-05
-9.38293e-05
-9.07067e-05
2.46556e-05
6.17579e-05
3.24539e-05
0.000139911
0.000173745
0.000159807
0.000141036
9.74455e-06
-0.000170752
-0.000152132
-2.35526e-05
3.91998e-05
6.5218e-05
-5.12834e-06
6.22165e-05
0.000135468
0.000114417
2.11525e-06
-0.000102832
-0.000105562
-2.90778e-05
3.04765e-05
1.40527e-07
6.76224e-05
0.000171446
0.000170108
0.000151413
7.10785e-05
-9.42823e-05
-0.000227211
-4.50246e-05
-2.94329e-06
4.45002e-05
7.2729e-06
4.31612e-05
0.000118491
0.000113827
4.82483e-05
-0.000110825
-0.000131678
-1.66318e-05
3.01363e-05
-3.43353e-05
3.49864e-05
0.000157953
0.000157783
0.000144072
7.15585e-05
-0.000151001
-0.000244116
-7.81377e-05
-2.42372e-07
2.60162e-05
-9.91968e-07
1.88799e-05
8.02825e-05
5.90425e-05
1.8619e-05
-0.000102
-0.000116079
3.13211e-05
9.64106e-05
-1.88014e-05
1.96271e-07
0.000120136
0.0001465
0.000112608
7.34632e-05
3.59175e-05
-0.000243341
-9.20879e-05
-9.59492e-06
1.68297e-05
-2.62458e-05
-2.11481e-05
6.55991e-05
2.73661e-05
8.5535e-06
-4.64975e-05
-4.4751e-05
4.85247e-05
0.000196774
6.54409e-05
-5.96799e-06
6.85677e-05
0.000139837
0.000141631
0.000100604
2.61436e-05
-0.000117994
-5.38894e-05
-1.32181e-06
-1.49114e-06
-2.6222e-05
1.17691e-05
6.83491e-05
5.52777e-05
1.11267e-05
-7.89228e-05
-2.19954e-05
2.59951e-05
0.000217872
6.6821e-05
-5.30441e-06
5.7492e-05
0.000144011
0.000156029
0.000100072
6.65712e-05
-8.53894e-06
-4.40954e-07
1.45346e-05
-9.19485e-06
-5.13552e-05
-2.99968e-05
6.09802e-05
5.75651e-05
6.46672e-06
-6.21546e-05
-2.21613e-05
6.61553e-05
0.0001679
8.95096e-05
1.35299e-05
4.23243e-05
0.000131976
0.000146496
0.000104408
5.99481e-05
2.6291e-05
9.60858e-06
2.70518e-05
-2.6341e-05
-6.2276e-05
-7.92061e-05
-1.11467e-05
6.32726e-05
4.34669e-05
-5.20301e-06
-6.73856e-06
5.48118e-05
0.000143064
0.000105753
3.76462e-06
1.25378e-06
7.39401e-05
0.000124298
8.26611e-05
1.39307e-05
1.66751e-05
1.11982e-05
1.94619e-05
-2.03868e-05
-5.36463e-05
-6.74625e-05
-6.32108e-05
-2.17297e-05
2.91201e-05
2.00527e-05
-2.48054e-06
1.89271e-05
0.000113488
8.97777e-05
-6.77505e-05
-4.14071e-05
6.46125e-05
0.000106462
9.20105e-05
3.91912e-05
2.45211e-06
-3.60248e-05
-5.68334e-06
6.24727e-06
-2.02677e-05
-3.15472e-05
-2.53111e-05
-6.46037e-06
2.9636e-05
3.54257e-05
1.55364e-05
1.76487e-05
6.2519e-05
7.27111e-05
-1.74882e-05
-3.32118e-05
5.86262e-05
7.71585e-05
8.36378e-05
7.42232e-05
-2.37704e-05
-0.000104636
-6.90024e-05
1.5647e-05
1.08462e-05
-1.34285e-05
2.3251e-05
-7.16505e-06
-1.46861e-05
-5.24402e-05
-6.47503e-05
2.37726e-05
0.000146164
0.00015162
0.000144316
0.000213483
0.000261174
0.00023261
0.000179804
8.63865e-05
-4.67895e-05
-2.42276e-05
-2.60791e-05
1.48557e-05
-1.99233e-05
-3.10488e-05
2.31019e-05
-7.62181e-06
-2.36602e-05
-5.30778e-05
-1.93571e-05
2.18202e-05
0.000159791
0.000150356
0.00016882
0.000226886
0.000260723
0.000109927
0.000118637
0.000103051
-4.72697e-05
-0.000108821
-5.20218e-05
7.60059e-06
-2.49282e-05
-3.25033e-05
-4.54436e-05
-6.8553e-05
-2.22357e-05
-3.82809e-05
-5.45683e-06
8.01993e-05
0.000142101
0.000116938
0.000162825
0.000235002
0.000260102
0.000110773
0.000111558
0.000100208
5.81776e-05
-4.44942e-05
-7.36412e-05
-3.39404e-05
-5.89644e-05
-7.30086e-05
-9.30818e-05
-0.000104429
-4.88015e-05
-4.16675e-05
-6.91776e-05
-5.35442e-06
0.000135738
0.000142674
0.000153925
0.000198272
0.000183013
0.000113504
0.000210791
9.09915e-05
9.2983e-05
-4.2342e-05
-0.000119229
-6.61136e-05
-6.86725e-05
-7.0486e-05
-5.47533e-05
-7.05429e-05
-1.38381e-05
-6.4343e-05
-8.93433e-05
-5.26984e-05
0.000124617
0.000118795
9.92468e-05
0.000163556
0.000219344
0.000121233
0.00016245
7.90237e-05
-0.000125703
-0.000144471
-0.000114945
-8.4455e-05
-0.00011595
-0.000137271
-0.000154758
-0.000138618
-1.52372e-05
-5.6968e-05
-7.89908e-05
-7.37791e-05
6.52432e-05
0.000114232
9.10032e-05
0.000143373
0.000162913
0.000214596
0.00031054
0.000124884
7.46189e-05
8.34839e-06
-6.07942e-05
-5.67287e-05
-9.4357e-05
-5.86997e-05
-0.000134783
-8.13568e-05
-3.12071e-05
-3.31238e-05
-7.35203e-05
-8.65175e-05
3.27934e-05
0.000122068
3.90338e-05
0.000102897
0.000127655
0.00013333
0.000249205
0.000210439
4.68937e-05
-6.20374e-05
-5.96316e-05
-1.83445e-05
-4.0879e-05
-3.16963e-05
7.66679e-06
-2.11334e-05
-8.63392e-05
-7.20662e-05
-6.14173e-05
-0.000106063
1.61628e-05
0.000149945
8.44815e-05
4.48939e-05
0.000120563
0.000163736
0.000231388
0.00025916
0.000155903
2.54633e-05
-3.61373e-05
-6.25064e-05
-0.000137835
-8.22609e-05
2.93148e-05
1.50521e-05
-2.61304e-05
-6.33518e-05
-2.33614e-05
-2.70008e-05
1.61865e-05
0.000102987
4.91793e-05
1.4461e-05
7.52064e-05
0.000100398
0.000134388
0.000157142
0.000150679
0.000117278
6.39586e-05
-3.49726e-05
-0.000111386
-7.0066e-05
-3.65548e-05
-1.20246e-05
-1.68415e-05
-3.26585e-05
-2.83073e-05
4.33125e-05
6.6282e-05
2.81066e-05
2.24299e-05
4.23463e-06
5.54388e-05
0.000101797
8.55505e-05
7.38637e-05
0.000127318
7.67439e-05
7.26493e-05
4.21973e-06
-5.56611e-05
-6.10355e-05
-7.81681e-05
-4.61334e-05
1.54307e-05
1.3575e-05
-1.01517e-05
1.58618e-05
8.48348e-05
4.52977e-05
1.16883e-05
2.10189e-05
9.32791e-05
0.000103787
0.000100493
8.22491e-05
8.14207e-05
3.52851e-05
1.14232e-05
7.07046e-06
-2.99894e-06
-1.87173e-05
-1.38548e-05
8.51439e-06
1.62352e-05
1.25125e-05
-3.64891e-06
1.75359e-05
3.86885e-05
2.82318e-05
9.27995e-06
1.92937e-05
6.2298e-05
8.36299e-05
9.8624e-05
9.07128e-05
3.86615e-05
0.00024693
9.62593e-05
5.64732e-05
2.60513e-05
-2.81126e-05
-5.80395e-05
-6.12072e-05
-1.08161e-05
-1.36065e-07
-3.25727e-06
4.49752e-05
0.000133782
9.85824e-05
5.32983e-06
-7.13015e-06
-6.62148e-05
-4.86546e-05
6.40736e-05
0.000180293
0.000372715
0.00024938
6.71155e-05
5.69926e-05
1.68121e-06
-2.84526e-05
-5.8505e-05
-4.38756e-05
-1.1324e-05
-3.36558e-06
-4.08543e-06
4.38921e-05
0.000145142
5.30801e-05
-2.63718e-06
-2.61314e-05
-6.81597e-05
-7.37203e-06
6.09366e-05
0.000176816
0.000373976
0.000196126
0.000101747
5.76524e-05
-5.12165e-07
-3.0871e-05
-6.0909e-05
-6.51577e-05
-1.15479e-05
-2.94231e-06
-5.65919e-06
4.02833e-05
0.000134214
9.7999e-05
-8.25518e-06
-1.66614e-05
-7.67843e-05
-1.92945e-05
4.95911e-05
0.00026784
0.000383745
0.000297604
0.000115837
5.80205e-05
-7.17289e-06
-4.76545e-05
-7.93371e-05
-4.72629e-05
-7.08513e-06
5.71041e-06
-6.45073e-06
1.72268e-05
0.000132517
1.80439e-05
-5.88949e-05
-5.79513e-05
-8.73191e-05
-7.22668e-05
3.13864e-05
0.000142843
0.000413494
0.000326388
8.10742e-05
5.59282e-05
1.52652e-05
-4.30098e-05
-7.63852e-05
-6.87185e-05
4.36237e-06
1.21213e-05
-4.66747e-06
2.08582e-05
9.65713e-05
4.67617e-05
-9.98685e-05
-7.34415e-05
-6.75367e-05
-6.95185e-05
2.37291e-05
0.000111403
0.000412628
0.000325608
8.13437e-05
3.87895e-05
-7.13709e-06
-3.97017e-05
-8.21314e-05
-8.91578e-05
-6.67437e-05
-1.33848e-05
-1.47019e-05
-3.74374e-05
5.46746e-05
2.26284e-05
-0.000127442
-8.76579e-05
-4.34192e-05
-3.25956e-05
1.47088e-05
8.27029e-05
0.000389461
0.000253261
0.000158225
1.44314e-05
-4.30444e-05
-3.20845e-05
-5.4776e-05
-0.00012935
-0.000146845
-7.69255e-05
-4.33207e-05
-6.34599e-05
3.39257e-06
2.46728e-05
-0.000106722
-8.11879e-05
-4.30671e-05
-8.37026e-06
1.88013e-05
8.5316e-05
0.000268596
0.000203617
9.71875e-05
-2.94057e-05
-8.11873e-05
-4.76702e-05
-2.47891e-06
-8.99676e-05
-0.000144595
-7.7853e-05
-4.24587e-05
-8.06611e-05
-2.60939e-07
-6.2048e-05
-8.4562e-05
-5.74706e-05
-4.70333e-05
7.53437e-07
3.24508e-05
0.000141092
0.000221412
0.000154058
0.000137489
2.88222e-05
-8.22421e-05
-3.38536e-05
1.70488e-05
-2.43211e-05
-7.57496e-05
-6.74289e-05
-3.6679e-05
2.03696e-05
2.45201e-05
-8.72996e-05
-6.75475e-05
-1.5066e-05
1.59173e-05
1.97319e-05
1.90314e-05
0.000105124
0.000178449
0.000113619
9.54342e-05
6.76437e-05
-2.39331e-05
-2.28758e-05
-1.63514e-05
-4.45898e-06
1.58127e-05
-3.61638e-05
-4.27478e-05
7.35909e-06
2.4405e-05
-2.00409e-05
-2.51956e-05
2.27591e-05
3.86295e-05
2.12024e-05
4.43834e-05
5.38922e-05
0.00013186
9.36633e-05
7.89515e-05
4.27074e-05
-2.04134e-05
-3.7731e-05
-2.59259e-06
2.30956e-05
5.42241e-05
4.29914e-05
1.24116e-05
1.86053e-06
2.59145e-05
2.38267e-05
2.79936e-05
2.99153e-05
7.99415e-05
8.06307e-05
6.43483e-05
4.18197e-05
9.62749e-05
7.64974e-05
4.6633e-05
3.66287e-05
2.13545e-05
2.68351e-06
6.93066e-06
4.20997e-05
6.71126e-05
6.02672e-05
2.07095e-05
1.33097e-05
2.907e-05
1.047e-05
3.49362e-06
2.76294e-05
6.23756e-05
8.66272e-05
8.39468e-05
7.14518e-05
6.55253e-05
0.000180896
4.57145e-05
3.80705e-05
5.30062e-05
1.08632e-05
-2.94819e-05
-2.93029e-05
2.69294e-05
2.67992e-05
8.0247e-06
2.69243e-05
8.37472e-05
4.77438e-05
-3.9734e-05
-8.29331e-05
-9.31875e-05
-2.34906e-05
0.000142738
0.000333439
0.000365408
0.000125447
4.5988e-05
3.80498e-05
5.27514e-05
1.03864e-05
-2.95e-05
-2.94125e-05
2.7593e-05
1.91029e-05
8.10769e-06
4.99387e-05
8.47726e-05
1.39035e-05
-3.992e-05
-8.48034e-05
-8.82365e-05
-2.74666e-05
0.000207231
0.000333048
0.000367849
0.000186099
4.69205e-05
3.79651e-05
3.28791e-05
-6.11726e-06
-2.90994e-05
-1.95792e-06
3.06015e-05
1.91417e-05
4.69291e-06
4.63443e-05
8.66698e-05
1.08054e-05
-7.39573e-05
-9.6554e-05
-0.000104199
2.33514e-05
0.000129561
0.000334524
0.00037938
0.000140456
2.09171e-05
3.79728e-05
3.27659e-05
1.06807e-05
-3.61171e-05
-2.35889e-05
4.88326e-05
3.53772e-05
1.10458e-06
5.08084e-06
7.92297e-05
-1.84346e-07
-9.62149e-05
-0.000110384
-9.82326e-05
2.15571e-05
0.00011912
0.000339118
0.000356775
0.000152575
1.10524e-05
3.04647e-05
3.34639e-05
7.27815e-06
-1.03053e-05
-6.97722e-06
6.56547e-05
2.87127e-05
5.74149e-07
1.95874e-05
7.15626e-05
-5.60392e-06
-9.59731e-05
-0.000103872
-0.000114676
-2.71737e-05
8.23451e-05
0.000431063
0.000456335
0.000163671
-2.0984e-05
-8.77817e-06
2.10024e-05
1.43072e-05
-1.08474e-07
-7.01961e-06
6.53181e-05
3.17083e-05
-1.93241e-05
4.09099e-06
8.06945e-05
2.82584e-05
-9.84782e-05
-8.52e-05
-8.87985e-05
-0.000105865
5.42686e-05
0.000231839
0.000398463
0.000202402
-3.02188e-05
-1.74754e-05
-5.94869e-06
2.58982e-05
-2.47801e-05
-2.35741e-05
9.84491e-06
2.32209e-06
-5.54824e-06
-3.15206e-05
7.11369e-05
-3.3784e-05
-7.61774e-05
-9.27413e-05
-8.77329e-05
-0.000108597
-7.81526e-05
0.000115802
0.00033489
0.000211525
0.000116433
-6.05574e-05
-1.83737e-05
-5.13867e-06
6.73988e-05
-5.73362e-05
-5.45007e-05
-3.99773e-05
-2.59331e-05
-4.66545e-05
1.7587e-06
-9.70458e-05
-7.47979e-05
-5.18603e-05
-6.50424e-05
-7.63542e-05
-7.9122e-05
8.89644e-05
0.000267371
0.000171059
6.2697e-05
-3.33238e-05
-8.9183e-06
-3.95724e-05
5.77767e-05
3.07136e-05
-2.91757e-05
-5.72852e-05
-3.98305e-05
6.38662e-06
-2.77521e-05
-0.000117696
-8.03114e-05
1.84614e-05
9.34736e-06
-2.75552e-05
-6.25515e-05
1.02332e-05
0.00019942
8.21402e-05
7.52785e-05
6.09155e-06
1.09068e-05
2.39359e-06
-5.5561e-06
7.55333e-05
2.276e-05
-8.28721e-05
-0.000101382
-1.55817e-05
-7.21014e-06
-4.68502e-05
-3.20116e-05
3.50809e-05
6.42431e-05
3.661e-05
-1.57077e-05
2.23296e-06
0.000135024
9.64794e-05
8.42014e-05
4.26116e-05
7.90224e-06
-2.3938e-05
1.33919e-05
5.54219e-05
8.36766e-05
5.28007e-05
-6.53652e-05
-1.76146e-05
-6.42003e-06
-1.06808e-05
2.28132e-05
3.73963e-05
9.82858e-05
9.177e-05
3.31339e-05
3.36566e-05
0.000114157
8.28478e-05
6.26775e-05
4.76504e-05
2.27364e-05
-3.0298e-06
7.23663e-07
7.1175e-05
8.82133e-05
6.44295e-05
9.0662e-06
6.85163e-06
1.39456e-05
-1.47485e-06
-9.79207e-06
2.90665e-05
6.33898e-05
8.06765e-05
8.1805e-05
7.24284e-05
9.07244e-05
2.52436e-05
-5.70129e-05
2.43839e-05
0.000142085
5.07727e-05
-5.68076e-05
-1.82297e-05
6.28528e-05
9.27982e-05
8.24809e-05
5.5233e-05
4.22453e-06
-3.96774e-05
2.75083e-06
5.30087e-05
6.7073e-05
4.91337e-05
0.000122564
0.000203923
0.000147246
-3.48596e-05
-5.88663e-05
2.28363e-05
0.00014353
5.19465e-05
-5.75451e-05
3.4489e-05
6.34943e-05
9.45317e-05
8.31839e-05
0.000100177
-1.50766e-05
-6.74285e-05
2.21645e-05
5.36372e-05
0.000105502
7.95709e-05
0.000122545
0.00020488
0.000147545
1.97907e-05
-7.69171e-05
1.9113e-05
0.000150435
-5.04656e-05
-0.000120305
-3.20239e-05
0.000102314
0.000161163
0.000142385
0.000102417
-6.21355e-05
-7.26836e-05
3.23999e-05
7.43406e-05
8.67048e-05
6.7545e-05
0.000140554
0.000201807
0.00010191
-5.01376e-05
-8.69581e-05
1.24642e-05
0.000122719
-5.44385e-05
-7.74088e-05
-4.24586e-05
0.000133966
0.000102039
0.000159443
0.000109339
-3.12723e-05
-2.85514e-05
4.14956e-05
6.91956e-05
8.58104e-05
6.65133e-05
0.00013491
0.000214932
-7.30803e-06
-3.13993e-05
-9.12871e-05
6.14506e-05
0.000130631
-1.10971e-05
-0.000151234
-6.0824e-05
7.96029e-05
0.000167128
8.703e-05
0.000118874
-7.29898e-05
-4.29596e-05
2.89416e-05
8.77319e-05
0.000116836
4.21776e-05
8.72658e-05
8.51308e-05
-2.5238e-05
-3.16349e-05
-8.3335e-05
4.94575e-05
0.000113254
2.65217e-05
-0.000136345
-1.08977e-05
0.000159334
9.38088e-05
6.98658e-05
8.7591e-05
-7.20631e-05
-4.49069e-05
4.43288e-05
8.92505e-05
0.000120665
2.70044e-05
0.000102322
0.000175972
-5.08998e-05
1.55912e-05
-0.000166349
2.78592e-05
9.13422e-05
-2.1943e-05
-0.00013439
-0.000159849
7.09065e-05
5.94662e-05
5.20665e-05
9.43325e-05
-6.04614e-05
-6.90804e-05
2.89514e-05
8.44702e-05
1.2578e-05
2.46267e-05
2.11001e-05
3.33005e-05
5.22497e-05
1.24635e-05
-8.49278e-05
-6.1394e-05
9.40292e-05
1.186e-05
-5.13612e-05
-0.000167622
-5.68737e-05
9.82906e-05
8.37153e-05
4.3906e-05
-1.95443e-05
-7.99651e-05
-2.17687e-05
0.000118963
3.92852e-05
-4.16338e-05
-1.01135e-05
4.51449e-05
-3.70901e-06
6.88627e-05
-4.98109e-05
-7.49004e-05
9.36687e-05
-2.48863e-05
-5.67025e-05
-0.000145463
-0.000184316
-9.90714e-05
6.39028e-05
2.66681e-05
3.54158e-05
-4.93735e-05
-4.11061e-05
3.53695e-05
0.000115684
2.80925e-05
-4.4067e-05
9.6202e-07
8.68163e-05
1.62715e-05
6.53847e-05
1.46595e-05
9.79461e-05
3.88529e-05
-2.31866e-05
-1.99887e-05
-0.00011749
-0.000204176
-0.000105343
3.20368e-06
4.88714e-05
-1.9599e-05
-2.5498e-05
5.61793e-05
0.000134767
3.475e-05
-6.713e-05
-7.40427e-05
4.9003e-05
0.00012109
9.17439e-05
5.10037e-05
6.65163e-05
-1.00748e-05
1.68971e-06
6.08246e-05
1.71485e-05
-0.000143659
-0.000318207
-0.000207515
-0.000130659
-9.75671e-05
4.38214e-05
8.04345e-05
0.0001177
9.20108e-05
2.53772e-05
-8.22158e-05
1.97911e-05
9.10906e-05
7.58686e-05
6.33371e-05
7.64028e-05
5.54908e-06
-1.67353e-05
6.14646e-05
8.96727e-05
4.93288e-05
1.60638e-05
-3.34252e-05
-5.94751e-05
-9.29425e-05
4.56126e-06
5.99967e-05
7.0643e-05
8.30155e-05
6.89446e-05
4.44181e-05
5.83895e-05
2.07862e-05
-6.43437e-07
1.89389e-05
4.92722e-05
-1.99631e-05
-4.08866e-05
-5.03773e-06
3.39759e-05
0.000181756
0.0001946
0.000157016
9.96516e-08
-8.81122e-05
1.81182e-05
0.000110599
0.000138996
7.56665e-05
6.38872e-06
-1.95924e-05
-1.76009e-05
2.06694e-05
-8.25901e-06
4.28171e-05
4.90239e-05
-4.83407e-05
-4.02502e-05
-4.66702e-06
8.92388e-05
0.000204093
0.000195389
0.00015793
-1.50441e-07
-5.91135e-05
6.20364e-05
0.000134773
0.000123484
7.70653e-05
-5.26572e-06
-1.96057e-05
-3.3595e-06
1.97069e-05
-7.77691e-06
1.73213e-05
3.10297e-05
-5.07136e-05
-3.83331e-05
-6.19674e-06
8.73697e-05
0.000185016
0.000190094
0.000158104
-4.62185e-06
-6.47009e-05
1.66948e-05
0.000139133
0.000145208
4.46281e-05
-7.67615e-06
-2.34604e-05
-8.30837e-06
2.09852e-05
-8.00967e-06
9.03013e-06
4.77685e-05
-6.75413e-05
-6.06975e-05
-3.82445e-05
5.47072e-06
0.00018819
0.000178224
8.56869e-05
-3.14658e-05
-0.000125114
1.28298e-05
0.000126407
0.000160671
4.04324e-05
-5.44606e-06
-3.50832e-05
-2.67419e-05
1.14912e-05
-7.71054e-06
2.57209e-05
2.47358e-05
-9.80901e-05
-8.68733e-05
-0.000104917
5.72552e-05
0.00019121
0.000141347
0.000100669
-7.66333e-05
-0.000161202
6.7185e-05
0.000176047
0.000154595
3.21078e-05
-2.40684e-05
-5.73835e-05
-3.66101e-05
1.18803e-05
-4.55762e-06
2.11705e-05
2.99203e-05
-0.000164688
-0.00013338
-0.000152832
-1.91709e-05
0.000218628
0.000138173
8.29699e-05
-0.000117644
-0.000216054
-1.33173e-05
0.000147963
0.000216453
9.01595e-05
-5.93342e-05
-5.32095e-05
-6.05744e-05
1.64888e-05
-1.37671e-05
1.31404e-05
7.69843e-06
-8.62558e-05
-0.0001951
-0.000164155
6.15717e-05
0.000204995
0.000157027
0.000111495
-0.000101339
-0.000165908
-1.99799e-05
0.000189562
0.000213991
0.00012033
-9.57311e-05
-8.03495e-05
-3.00069e-05
3.00379e-05
6.18974e-06
-4.45737e-06
-2.81706e-05
-2.41304e-05
-0.00016898
-0.000136954
-8.4288e-05
0.000174739
0.000156148
0.000118038
-0.000123173
-0.000121193
-1.63272e-05
0.000105201
0.000198391
6.64685e-05
-2.54247e-05
-7.60596e-05
-6.20269e-05
5.12182e-05
5.64882e-05
9.8354e-06
-1.27546e-05
4.13626e-05
-5.30539e-05
-5.53017e-05
-6.29307e-06
9.19052e-05
0.000141879
7.35062e-05
-1.2162e-05
-0.000105317
-1.54893e-05
8.56679e-05
0.000161278
0.000120898
5.14417e-06
-4.20954e-05
-5.93654e-05
4.91395e-05
4.3572e-05
2.49391e-05
2.86013e-05
2.48785e-05
-2.1285e-05
-4.99934e-05
-2.5426e-05
2.0664e-05
6.10349e-05
5.23308e-05
9.7115e-06
-6.80728e-05
3.66878e-05
0.00010093
0.000140452
0.000103278
1.12581e-05
-1.54745e-05
-1.11891e-05
7.88418e-05
4.63032e-05
1.94954e-05
2.65676e-05
1.22959e-05
-2.23437e-05
-2.80625e-05
7.35408e-06
-1.7454e-05
-2.36585e-05
-1.64771e-05
-2.23597e-05
-1.65478e-05
3.97083e-05
7.40692e-05
0.000106191
9.80706e-05
4.15253e-05
-1.86714e-05
3.96511e-05
2.96936e-05
6.184e-05
4.94226e-05
3.77136e-05
4.66461e-06
-6.75929e-06
2.38405e-05
5.40753e-05
5.50091e-05
6.84202e-06
-1.92254e-05
-1.20897e-05
-3.13759e-05
-2.84051e-06
6.32234e-05
7.95084e-05
7.72254e-05
6.22392e-05
4.52447e-05
5.21858e-07
1.95354e-05
1.94295e-05
4.6226e-05
3.18126e-05
-7.83406e-05
-3.9548e-05
8.2578e-05
5.86548e-05
0.000234807
0.000224226
0.000220645
5.41233e-05
-7.05306e-05
5.07019e-07
9.71345e-05
0.000140355
7.4687e-05
-3.37067e-05
-9.38839e-05
-5.25417e-05
1.92743e-05
1.89412e-05
4.63223e-05
3.17495e-05
-0.000117126
-4.23213e-05
8.47297e-05
5.77943e-05
0.000259742
0.000224597
0.000171944
5.48851e-05
-5.93231e-05
-1.15122e-07
9.71772e-05
0.000129843
7.67494e-05
-6.14388e-05
-9.55006e-05
-5.51227e-05
1.77132e-05
2.15536e-05
4.39677e-05
3.20534e-05
-8.20603e-05
-4.73433e-05
9.30752e-05
5.38173e-05
0.00026349
0.00022905
0.00022594
-2.19478e-05
-7.80751e-05
-3.75462e-06
9.68812e-05
0.000146379
8.24844e-05
-6.69856e-05
-0.000111421
-7.14902e-05
2.48118e-05
2.05192e-05
3.46388e-05
-3.20936e-06
-7.81029e-05
-7.00882e-05
4.93813e-05
9.16324e-05
0.000273781
0.00022112
0.000225536
-4.71828e-05
-9.04979e-05
-2.12257e-05
9.19635e-05
0.000158558
4.8202e-05
-3.68322e-05
-0.000161243
-8.04441e-05
6.88801e-06
3.09221e-05
4.34693e-05
2.44569e-05
-0.000122009
-7.68422e-05
2.27339e-05
-1.41986e-05
0.000277341
0.000219464
0.000158491
-8.49939e-05
-0.000142041
-1.13526e-05
6.53676e-05
0.000186873
7.85764e-05
-8.95961e-05
-0.00017088
-0.000171471
-4.01021e-05
2.79549e-05
3.37727e-05
-8.16572e-06
-0.000143094
-9.97027e-05
6.25366e-05
-3.70162e-05
0.000227065
0.00022489
0.000216715
-0.000145367
-0.000184422
-6.64948e-05
8.24592e-05
0.000187817
0.000192928
7.33983e-06
-0.000173614
-0.000138861
1.45226e-05
3.64562e-05
3.34093e-05
-5.67984e-05
-0.000230093
-0.000154793
7.21459e-06
-3.09054e-05
8.73329e-05
0.00020408
0.000171039
-0.000170602
-0.000209093
-0.000108942
1.12329e-05
0.000210779
0.000200787
6.45675e-05
-9.14867e-05
-9.46623e-05
6.1342e-05
6.09553e-05
3.09299e-05
-6.80489e-05
-0.000173764
-0.000313269
-0.000115385
-7.29527e-05
0.000129429
0.00021789
0.000184699
-0.000114946
-0.000144597
-5.79057e-05
4.00528e-05
0.000175228
0.000157559
7.1587e-05
-3.6117e-05
-8.37627e-05
8.93485e-05
5.50135e-05
2.05348e-05
-0.000106633
-9.6487e-05
-0.000106929
-6.04471e-05
4.24934e-06
9.83378e-05
0.000119227
0.000185183
-9.15951e-05
-0.000145314
1.25695e-05
0.000103118
0.000159161
0.000127763
3.87958e-05
-2.55693e-05
-8.47323e-05
8.45343e-05
8.17899e-05
1.81717e-05
-3.32518e-05
-3.70187e-05
-1.41664e-05
-3.80742e-05
1.34135e-05
3.62873e-05
7.98062e-05
7.22472e-05
-5.46465e-05
-6.98216e-05
4.27395e-06
9.70536e-05
0.000137365
9.42561e-05
2.24762e-05
4.5992e-06
-1.6448e-05
7.14832e-05
6.30303e-05
1.31433e-05
1.03982e-05
-7.48236e-06
-1.48132e-05
-1.51428e-05
1.59263e-05
4.25944e-06
2.38187e-05
3.3345e-05
-6.0647e-06
2.2424e-06
5.63097e-05
7.17837e-05
9.20707e-05
9.73434e-05
8.58768e-05
3.46495e-05
3.85424e-05
3.9689e-05
5.22561e-05
5.20955e-05
3.01363e-05
2.15694e-06
2.59545e-06
2.1306e-05
5.27735e-05
5.36929e-05
1.16443e-05
-3.47683e-06
2.51092e-05
1.03476e-05
5.51416e-05
8.60075e-05
8.56761e-05
8.06062e-05
7.4847e-05
0.000101673
4.8716e-05
5.91074e-05
9.00654e-05
0.000395746
6.9944e-05
-0.000183801
-0.00031269
-0.000171463
9.665e-05
0.000389144
0.000310301
0.000255119
0.000113394
4.54835e-05
6.3321e-05
0.000108033
7.89461e-05
-3.37775e-06
4.52288e-06
6.76496e-05
0.000134566
4.97741e-05
0.000187829
0.000396078
-5.87728e-05
-0.000186535
-0.000316229
-0.000175836
9.16177e-05
0.000394974
0.000280411
0.000205986
7.23369e-05
4.55951e-05
6.4045e-05
0.000108646
7.85375e-05
-5.50116e-06
2.21354e-06
6.58169e-05
0.000133674
5.02443e-05
0.000173941
0.000397095
7.86829e-05
-0.000197536
-0.00031177
-9.11032e-05
7.96189e-05
0.000384559
0.000277042
0.000202916
6.91835e-05
4.65843e-05
8.99442e-05
0.00010827
4.37723e-05
-8.87602e-06
1.59626e-05
9.99658e-05
0.000126598
5.42955e-05
0.000134169
0.000359843
0.000103215
-0.000196814
-0.000340274
-0.000129323
3.3549e-05
0.000318205
0.000244098
0.000235848
8.71038e-05
4.50019e-05
7.40169e-05
0.000111981
8.55065e-05
-2.12554e-05
-4.06356e-08
4.81502e-05
0.000120351
5.55519e-05
5.39241e-05
0.000279703
7.68744e-05
-0.000212908
-0.000300415
-0.000278147
-3.32545e-05
0.000273238
0.000208009
0.000185823
3.98496e-05
2.99754e-05
7.99503e-05
0.000111355
9.10139e-05
-1.02744e-05
-3.63809e-06
4.96866e-05
0.000116876
6.23929e-05
8.81078e-05
0.000179475
-7.22138e-05
-0.000162762
-0.000192547
-0.000153454
-4.46594e-05
0.000210354
0.000120672
0.000104422
-4.29992e-06
6.07877e-06
9.99522e-05
0.00012268
8.58441e-05
1.58653e-05
1.33069e-05
7.18756e-05
0.000124822
8.02972e-05
8.1172e-05
0.000108497
3.51112e-05
-0.000104923
-5.83994e-05
-9.84602e-05
-2.82828e-05
0.000133698
0.000155273
0.000109937
-5.85067e-05
-3.5324e-05
0.000106818
0.000153679
6.38099e-05
-8.22415e-06
-3.56237e-06
7.39283e-05
0.000130268
7.95215e-05
4.66027e-05
6.49358e-05
2.99567e-06
-0.000189327
-0.000139339
-5.75337e-05
2.9948e-05
0.000124552
0.000210241
0.000150775
-6.53868e-05
-5.45261e-05
6.01267e-05
0.000149221
9.17013e-05
2.66511e-05
5.74371e-06
3.46359e-05
9.2641e-05
5.96049e-05
4.19791e-05
3.74049e-05
-4.15426e-05
-0.000130209
-0.000114888
-2.44645e-05
4.49492e-05
0.000132414
0.000166654
0.000175487
-0.000100889
-0.000122869
-1.97119e-05
9.61734e-05
0.000119276
6.91907e-05
4.41596e-05
4.97122e-05
7.38566e-05
5.05e-05
4.49097e-05
1.9492e-05
-2.96377e-05
-7.45698e-05
-6.52849e-05
-5.23864e-05
2.5561e-05
8.82275e-05
0.000114531
0.000131261
-6.26842e-05
-6.73536e-05
-5.95494e-06
3.34553e-05
0.000103719
7.00144e-05
6.70361e-05
4.23886e-05
4.47121e-05
4.07526e-05
3.70052e-05
-5.95931e-06
-2.90019e-05
-5.5191e-05
-2.62353e-05
-8.64429e-06
3.00288e-05
7.12375e-05
7.34862e-05
8.3139e-05
-7.7624e-06
-6.55697e-06
2.64741e-05
8.44981e-05
9.54747e-05
5.82144e-05
6.57895e-05
4.68012e-05
-2.90108e-06
6.10663e-05
7.95956e-05
6.00696e-05
3.23181e-05
6.46536e-06
2.45802e-06
1.7589e-05
5.5251e-05
5.7416e-05
2.86616e-05
2.63044e-05
1.00875e-05
-9.93941e-06
2.64056e-05
8.79951e-05
8.48692e-05
7.52707e-05
7.60903e-05
7.90968e-05
6.4324e-05
3.9289e-05
6.49778e-05
7.40744e-07
-8.85615e-06
0.000137578
-0.000116406
-0.000119719
6.0383e-05
0.000210053
0.000175655
0.00023962
9.22991e-05
-2.40494e-05
2.12813e-06
0.000143831
0.000148287
-1.73044e-05
-4.632e-05
7.58466e-05
9.8983e-05
3.75768e-05
4.54031e-05
-1.83905e-06
-1.42965e-05
0.000104806
-0.000112266
-0.000119258
5.87563e-05
0.000197009
0.000203139
0.000211726
2.57775e-05
-2.51658e-05
5.02965e-05
0.000175208
0.000150336
-1.77269e-05
-4.95647e-05
7.549e-05
9.96766e-05
5.01539e-05
4.74069e-05
-5.08441e-05
2.02222e-05
0.000149968
-0.000101085
-0.000128625
4.07553e-05
0.00020581
0.000206265
0.000246986
1.88373e-05
-3.09529e-05
-2.27477e-06
0.000145964
0.000157724
-6.60267e-05
-1.96988e-05
7.45632e-05
7.43125e-05
1.63874e-05
4.76976e-05
-1.7379e-05
-7.8287e-05
0.000155959
-0.000200925
-0.000185202
-4.55311e-05
0.000159902
0.000189859
0.000244168
-1.00152e-05
-4.04119e-05
5.88931e-05
0.000192304
0.000121273
-4.01455e-05
-6.90305e-06
0.000122218
0.00010913
1.49082e-05
2.00022e-05
-7.25431e-05
-4.05466e-05
0.000220017
-0.000199297
-0.000247581
-0.000197002
7.10812e-05
7.68185e-05
0.000170653
1.55659e-05
-5.52826e-05
1.43481e-05
0.00019536
0.000176701
-2.5799e-05
3.47036e-05
0.000106868
8.82841e-05
1.77963e-05
2.71907e-05
-3.58539e-05
-1.53292e-05
8.63808e-05
7.50212e-05
-0.000160806
-0.000232712
-3.89014e-05
-0.000150113
-2.9678e-05
-0.000127883
-0.000134905
0.000100406
0.000185405
0.000177471
1.42623e-05
-1.11298e-05
0.000126897
9.61944e-05
3.44178e-05
5.96621e-05
2.38073e-05
1.41545e-05
2.283e-06
-6.29448e-05
-0.000105465
-0.000148964
8.33863e-05
-9.81402e-05
-0.000134227
-0.000173743
-0.000221776
-2.76233e-05
0.000262993
0.000114057
3.87468e-06
-2.80363e-05
0.000115598
9.04039e-05
2.50778e-05
6.26761e-05
8.96109e-05
9.5352e-06
-5.68227e-05
-9.99972e-06
-1.61741e-05
-3.71421e-05
0.000223468
0.000173228
5.64787e-05
-0.000158158
-0.000159825
0.000108719
0.000340124
8.77974e-05
-6.34401e-05
2.27113e-05
0.000127674
6.53028e-05
-1.56262e-05
2.58149e-05
6.07544e-05
-7.86463e-06
-8.31931e-05
-8.4583e-05
2.37643e-05
5.05924e-05
0.00013581
0.000192883
0.000166629
-0.000132726
-0.000133637
-2.31927e-05
0.000239251
9.00508e-05
-2.96653e-05
3.53411e-05
7.25584e-05
3.97459e-05
7.31858e-06
2.34915e-05
2.18306e-05
-6.41622e-05
-8.02717e-05
-6.9447e-05
-4.95883e-05
5.13563e-05
8.40569e-05
0.000106856
8.55228e-05
-1.84108e-05
-5.67735e-05
-5.93015e-06
7.50867e-05
8.49029e-05
7.96402e-06
4.90601e-05
5.81804e-05
2.00476e-05
2.27203e-05
2.68525e-05
3.38096e-05
-4.49388e-05
-6.56962e-05
-3.87141e-05
-1.90241e-05
2.7231e-05
6.68127e-05
6.17794e-05
6.67707e-05
-1.88859e-05
-9.46739e-06
3.07161e-05
0.000119874
8.23777e-05
2.74715e-05
4.21688e-05
4.84074e-05
3.03307e-05
6.3573e-05
6.54508e-05
5.68593e-05
3.20182e-05
5.98231e-06
-5.886e-06
1.24708e-07
2.26219e-05
2.10636e-05
1.57179e-05
6.92108e-05
3.31743e-05
2.45505e-06
6.41966e-05
9.22899e-05
8.04985e-05
6.13699e-05
5.22387e-05
4.47341e-05
5.82567e-05
0.000109366
5.08767e-05
-4.7015e-05
6.95364e-05
0.000121056
-0.000221796
-5.64453e-05
4.58692e-05
-5.58889e-06
-1.74421e-05
0.000238979
0.000156304
1.68233e-05
-1.61768e-05
8.5674e-05
0.000203129
5.5759e-05
-4.20907e-05
2.8358e-05
0.0001221
0.000110276
8.50843e-07
-5.12102e-05
6.52001e-05
2.84771e-06
-0.000222686
-5.46485e-05
4.43673e-05
-5.11078e-05
-2.29894e-05
0.000238894
8.72449e-05
1.66469e-05
1.07187e-05
8.35355e-05
0.000205142
-5.5184e-06
-4.45358e-05
2.58762e-05
0.000122448
0.000112659
-1.86532e-06
-4.86419e-05
0.000124376
1.4326e-05
-0.000225715
8.47155e-06
1.06877e-05
-3.35987e-05
5.89862e-05
0.00026118
8.39661e-05
-1.60894e-05
7.56592e-06
8.08914e-05
0.000197991
-1.18011e-05
-5.17237e-05
6.26205e-05
0.000123016
9.77592e-05
-9.01496e-06
-7.39639e-05
0.000101207
0.000147163
-0.000260553
-3.93963e-05
-3.59773e-05
-0.000151663
4.06087e-05
0.00023588
0.00015023
-2.77705e-05
1.92662e-05
0.000135924
0.000197176
-3.25597e-05
-6.32058e-05
4.54565e-05
0.000127672
7.80646e-05
3.00375e-05
-0.00010906
-7.68621e-07
4.87632e-05
-0.000254108
-5.49816e-05
-3.09192e-05
-0.00027642
-4.28215e-05
0.000254633
0.000166456
7.08412e-06
2.95351e-05
0.00010876
0.000179117
-4.83227e-05
-7.03488e-05
3.10252e-05
0.000111887
8.91138e-05
-1.7445e-07
-9.64326e-05
-3.84511e-06
2.14116e-05
-0.000225863
-4.67447e-05
-8.11924e-05
-0.000339206
-0.000217532
0.000143318
9.83088e-05
1.20585e-05
3.61264e-05
0.000149868
0.000181031
-4.0757e-05
-3.70821e-05
6.48426e-05
0.000105608
7.76509e-05
2.14288e-05
-2.99341e-05
-4.67408e-06
-8.94612e-06
-0.000205824
8.64255e-05
1.29342e-05
-0.000162179
-0.000278333
-0.000102937
-2.99306e-05
1.93733e-05
-9.36112e-06
0.000143757
0.000177086
6.22511e-05
-4.82295e-05
4.97498e-05
0.000103322
8.83158e-05
5.7144e-05
1.32784e-05
-8.21075e-06
-6.22753e-05
-0.00013846
-1.14187e-05
-3.95715e-06
-6.82001e-05
-4.49426e-05
-4.39741e-05
-0.000190897
-7.71664e-05
-2.01761e-05
0.000226818
0.00013754
-5.37311e-05
-1.6355e-05
5.54568e-05
8.37244e-05
1.05959e-05
5.19399e-05
-4.54102e-06
-5.18877e-05
-9.84976e-05
-0.000122065
2.92772e-05
4.9567e-05
3.72985e-05
0.000100424
6.67228e-05
-0.000123304
-7.9342e-05
8.82353e-05
0.000229467
9.45216e-05
-4.9544e-05
-1.28035e-05
2.5494e-05
-2.19283e-05
5.61726e-05
7.6431e-05
-1.94643e-05
-8.61068e-05
-9.49033e-05
-7.00644e-05
-2.54791e-05
4.89996e-05
3.41239e-05
6.47223e-05
6.97433e-05
-8.21086e-06
-6.84378e-06
4.01938e-05
0.000125736
2.52219e-05
-2.66911e-05
7.05666e-06
2.55321e-05
1.74449e-05
4.75389e-05
4.32124e-05
3.39953e-05
-2.42525e-06
-6.60637e-05
-6.04061e-05
-2.36021e-05
3.68497e-05
4.48906e-05
4.66923e-05
4.9797e-05
4.80711e-06
2.23569e-05
6.78452e-05
0.00014761