/*--------------------------------*- C++ -*----------------------------------*\
| =========                 |                                                 |
| \\      /  F ield         | OpenFOAM: The Open Source CFD Toolbox           |
|  \\    /   O peration     | Version:  5.0                                   |
|   \\  /    A nd           | Web:      www.OpenFOAM.org                      |
|    \\/     M anipulation  |                                                 |
\*---------------------------------------------------------------------------*/
FoamFile
{
    version     2.0;
    format      ascii;
    class       volVectorField;
    location    "0";
    object      U;
}
// * * * * * * * * * * * * * * * * * * * * * * * * * * * * * * * * * * * * * //

dimensions      [0 1 -1 0 0 0 0];

internalField   nonuniform List<vector> 
7200
(
(0.0328404 -0.000234741 0.00503226)
(0.0325488 -0.000197118 0.00498807)
(0.0307973 -7.915e-05 0.00471869)
(0.0258687 -4.13359e-06 0.00349366)
(0.0204719 -0.000233099 0.00366209)
(0.01894 -0.000288442 0.00375759)
(0.0187311 -0.00013235 0.00214946)
(0.0194679 -1.27928e-05 0.000513796)
(0.0212916 6.14307e-05 -0.000765152)
(0.024039 -9.98621e-06 -0.00264883)
(0.0277077 -9.54837e-05 -0.0052539)
(0.0301963 -7.64443e-05 -0.006579)
(0.0279746 -5.55983e-05 -0.00556197)
(0.0231172 -0.000183274 -0.00492993)
(0.0198259 -0.000195496 -0.00545893)
(0.0194928 -5.55234e-05 -0.00435658)
(0.0223926 0.000267577 -0.000950035)
(0.0261687 0.000451031 0.00183136)
(0.0296032 0.000402967 0.00454622)
(0.0317293 6.00801e-05 0.00605771)
(0.056231 -0.000629299 0.00724833)
(0.0558057 -0.000517816 0.00699789)
(0.0531408 -0.00019842 0.00717595)
(0.042444 -0.000145153 0.00516815)
(0.0346075 -0.000685198 0.00594036)
(0.0326433 -0.000654958 0.0057787)
(0.0314895 -0.000321553 0.00341991)
(0.0322698 -6.57394e-05 0.00122658)
(0.0369071 1.19311e-05 -0.00134656)
(0.0425852 -0.000277222 -0.00460465)
(0.0467654 -0.000371152 -0.00731988)
(0.0517207 -0.000241044 -0.00968936)
(0.0493751 -0.000221098 -0.00826896)
(0.0417336 -0.000435 -0.00689414)
(0.034968 -0.000451436 -0.0080618)
(0.0325751 -0.000197835 -0.00723512)
(0.0389089 0.000775762 -0.000368878)
(0.0431541 0.000957543 0.0023832)
(0.0497202 0.000813567 0.00670218)
(0.0554199 -0.000312737 0.00899876)
(0.0999669 -0.00183377 0.009274)
(0.0992667 -0.00155429 0.00769392)
(0.0975026 -0.000611083 0.00949138)
(0.0911839 -9.72647e-05 0.00804424)
(0.0725424 -0.00131198 0.00818692)
(0.0604324 -0.00142877 0.00876691)
(0.0562193 -0.000810673 0.00494262)
(0.0558285 -0.000468597 0.00374888)
(0.0607216 -0.000498577 0.00236588)
(0.0692386 -0.00160887 -0.000129255)
(0.0825594 -0.00205986 -0.00706251)
(0.0933464 -0.00131798 -0.0135438)
(0.0924271 -0.000890103 -0.0112684)
(0.0810366 -0.00109729 -0.00844074)
(0.072718 -0.000948423 -0.0096386)
(0.0610849 -0.000765183 -0.012501)
(0.0601139 0.000242845 -0.00924268)
(0.0760264 0.00142804 0.000393943)
(0.0902939 0.000770411 0.00818506)
(0.099406 -0.00102028 0.0126363)
(0.1345 -0.001776 0.0108996)
(0.126315 -0.00266792 0.00760877)
(0.133067 -0.000993302 0.00776022)
(0.131214 -0.0009017 0.00978746)
(0.131254 -0.00144551 0.00508971)
(0.123905 -0.00128501 0.00845803)
(0.100829 -0.00199682 0.0114889)
(0.0858425 -0.00126213 0.00655973)
(0.0841379 -0.00167116 0.00734775)
(0.0828977 -0.0053183 0.0107683)
(0.0849423 -0.00801627 0.0129634)
(0.110721 -0.00747459 0.000923461)
(0.126609 -0.00507365 -0.00755707)
(0.132909 -0.00288265 -0.0108659)
(0.120219 -0.00184512 -0.00737572)
(0.112151 -0.0001572 -0.010543)
(0.103847 -0.000404887 -0.0157252)
(0.0956993 -0.00268008 -0.0217635)
(0.106252 -0.00307164 -0.0157414)
(0.123214 -0.00419225 -0.00365515)
(0.142987 -0.0024891 0.00582199)
(0.139103 0.000133873 0.00831478)
(0.131977 -0.00246086 0.00275813)
(0.138809 -0.000275353 0.00539273)
(0.134715 -0.00486244 0.00544668)
(0.140494 -0.00391543 0.00547597)
(0.136133 -0.000736625 0.0115057)
(0.111903 -0.000997186 0.00991763)
(0.103754 -0.00248807 0.00847055)
(0.106048 -0.00450313 0.00783996)
(0.103187 -0.010273 0.0132852)
(0.110593 -0.0119337 0.0124494)
(0.124216 -0.00898921 0.00249123)
(0.132616 -0.00281528 -0.00789222)
(0.112889 -0.0012898 -0.00332539)
(0.114149 -0.00168802 0.00261426)
(0.129592 0.00152033 -0.00453168)
(0.122152 -0.00241084 -0.0213704)
(0.120463 -0.00694255 -0.0221724)
(0.126852 -0.00843578 -0.0141403)
(0.144433 -0.00723662 -0.000989849)
(0.14367 0.000320966 0.00318288)
(0.136115 -0.00113353 0.00216995)
(0.13341 -0.00257001 0.000341627)
(0.142005 -0.00598913 0.00505314)
(0.138931 -0.00885111 0.00388454)
(0.147629 -0.000216654 0.00937612)
(0.129465 0.00188949 0.00956251)
(0.119874 -0.00302423 0.00875895)
(0.125369 -0.00661943 0.00550965)
(0.133044 -0.00987831 0.0059285)
(0.119824 -0.0127125 0.0154787)
(0.123161 -0.0100004 0.00848115)
(0.128897 -0.00167107 -0.00454807)
(0.119383 0.00212602 -0.00477918)
(0.113519 -0.00180007 0.00505079)
(0.135745 0.00216748 0.00165456)
(0.14293 0.00092494 -0.00878396)
(0.137327 -0.00602956 -0.0229761)
(0.134114 -0.011131 -0.0151217)
(0.147248 -0.0103238 -0.00720481)
(0.142499 -0.00226924 -0.00095914)
(0.138017 -1.94248e-05 0.00192131)
(0.137461 -0.00403498 0.000534153)
(0.14259 -0.00576359 0.00343369)
(0.141921 -0.00864401 0.00241846)
(0.135884 -0.00649338 0.00298557)
(0.131491 0.00226074 0.00802403)
(0.128631 0.00226499 0.00277174)
(0.137219 -0.0109693 -0.00535669)
(0.148386 -0.0110381 -0.0020772)
(0.134159 -0.0084676 0.0128789)
(0.126464 -0.00587147 0.0112449)
(0.129769 0.000710827 -0.000789573)
(0.130074 0.00297626 -0.00832445)
(0.129713 -0.000564642 -0.00478284)
(0.136489 -0.000443161 0.00191024)
(0.145562 -0.00121472 -0.00124326)
(0.149148 -0.00328255 -0.0193789)
(0.144669 -0.00740379 -0.0205824)
(0.155942 -0.0078215 -0.0116709)
(0.145737 -0.00386916 -0.00550748)
(0.140273 0.00026489 0.000790795)
(0.141979 -0.00199852 0.00311404)
(0.144786 -0.00584305 0.00445049)
(0.142773 -0.0049988 0.00336375)
(0.131057 -0.00307796 -0.00241224)
(0.126827 0.00160231 -0.00184588)
(0.13851 -0.000215021 -0.00654702)
(0.14382 -0.00958588 -0.0065261)
(0.149305 -0.0141311 -0.000305709)
(0.143099 -0.00369159 0.0110373)
(0.128898 0.001642 0.0099574)
(0.128262 0.00348479 0.00479847)
(0.129039 0.000532474 -0.00263622)
(0.135583 -0.00252255 -0.00287445)
(0.141574 -0.00105898 0.00233798)
(0.144944 -0.00248876 -0.00172238)
(0.15444 -0.00092874 -0.0130976)
(0.158038 -0.00345032 -0.0156743)
(0.164722 -0.00222822 -0.011344)
(0.15334 -0.00143659 -0.00994063)
(0.144786 0.00140387 -0.00482134)
(0.142925 0.00253848 0.00397266)
(0.143945 -0.00263038 0.00509028)
(0.139935 -0.00230409 0.00423703)
(0.138209 0.000276248 -0.00294429)
(0.1415 -0.00122698 -0.000587036)
(0.140774 -0.00143466 0.00106287)
(0.142808 -0.00147786 -0.000340996)
(0.149777 -0.0113834 0.00457759)
(0.145387 -6.10616e-05 0.00840893)
(0.132796 0.0069841 0.00861933)
(0.128233 0.00547753 0.00726674)
(0.128173 0.000826599 0.00419063)
(0.135177 -0.00231093 0.00230891)
(0.141157 0.00105767 0.00485351)
(0.142949 0.00275413 0.00528349)
(0.147321 0.000603127 -0.00286078)
(0.163233 -0.00161987 -0.0102222)
(0.163008 -0.000994105 -0.00839116)
(0.158875 0.00388103 -0.00846759)
(0.149431 0.00451788 -0.0061547)
(0.148756 0.00354218 -0.00262865)
(0.145581 -0.002036 0.00191211)
(0.142413 -0.00478475 0.00519942)
(0.147823 -0.00477234 0.00465439)
(0.154335 -0.0021602 0.0028853)
(0.143533 0.00260299 0.00493275)
(0.141532 0.00255504 -0.0020217)
(0.145074 -0.00467801 -0.00133621)
(0.146285 5.04536e-05 0.00662699)
(0.144336 0.00711206 0.00659946)
(0.142762 0.00955816 0.00127689)
(0.140375 0.0050987 -0.00203622)
(0.13897 0.00224453 0.00102343)
(0.141568 0.00328484 0.00645926)
(0.142735 0.00324164 0.00802839)
(0.146671 0.000162941 0.00419974)
(0.155754 -0.00419525 -0.00556539)
(0.161504 0.00621592 -0.00479291)
(0.157944 0.00819683 -0.00800715)
(0.149253 0.00361092 -0.00998834)
(0.150886 -0.00108165 -0.00649371)
(0.15439 -0.00268661 -0.00424067)
(0.158058 -0.00418796 -0.00157718)
(0.156115 -0.00728293 0.0027404)
(0.152163 -0.00572934 0.00920813)
(0.150029 -0.00154514 0.00663099)
(0.149809 -0.000197539 0.00260249)
(0.149943 -0.00243579 -0.00161478)
(0.1506 -0.00260602 0.0032881)
(0.152966 0.00384259 0.00649412)
(0.156175 0.00744837 -0.0033456)
(0.155984 0.00477836 -0.00808773)
(0.153059 0.00179171 -0.00816169)
(0.149241 0.00350154 0.00216613)
(0.150311 0.00145725 0.00664489)
(0.155516 -0.00308148 0.00888203)
(0.160463 -0.00101113 0.0016627)
(0.162596 0.00439559 -0.0010837)
(0.159584 0.00884178 -0.00530653)
(0.158671 0.00841516 -0.00768524)
(0.15939 0.00315385 -0.0042778)
(0.159315 -0.000274525 -0.000668366)
(0.15967 -0.00270866 0.00134867)
(0.159462 -0.00293392 -0.00174394)
(0.157136 -0.00308037 0.00239568)
(0.157796 -0.00744375 0.00698168)
(0.1578 -0.00959228 0.00409502)
(0.157373 -0.00724533 0.00158996)
(0.156934 -0.00135387 0.00239627)
(0.156204 0.00409664 0.00576345)
(0.155604 0.00356649 0.00580556)
(0.156761 -0.00117379 -6.73889e-05)
(0.158935 0.00105387 -0.00928265)
(0.158613 0.00109635 -0.00598609)
(0.156231 -0.0046173 0.00361529)
(0.155495 -0.00658822 0.00754525)
(0.160371 -0.00241943 0.00416699)
(0.0208259 0.000410657 0.00409274)
(0.0211279 0.000359137 0.00648281)
(0.0203187 0.000211415 0.00592098)
(0.019086 0.000188405 0.0049592)
(0.0184236 0.000175641 0.00536927)
(0.0195545 8.80521e-05 0.00488079)
(0.0214537 -2.51511e-05 0.00299302)
(0.0243812 -0.000135087 0.000784275)
(0.0270724 -0.000138626 -0.00142148)
(0.0283137 -0.000162553 -0.00245539)
(0.0287815 -0.000256579 -0.0016889)
(0.0289456 -0.00030948 -0.000107152)
(0.0267953 -0.000267245 0.000833977)
(0.0222575 -0.000313925 -0.000249817)
(0.0177185 -0.00051252 -0.00079872)
(0.0150714 -0.000598643 -0.000287943)
(0.0144897 -0.000286204 -0.00141227)
(0.0151103 4.85085e-06 -0.00275056)
(0.0166492 0.000315383 -0.00343089)
(0.0188056 0.000469758 -0.000786066)
(0.0251903 0.0013162 0.00427234)
(0.0257609 0.00125649 0.00663519)
(0.0359564 0.000584415 0.00953915)
(0.027114 0.000851822 0.0051779)
(0.0282685 0.000831006 0.00534035)
(0.0332222 0.000257461 0.00795872)
(0.0358537 -5.85631e-05 0.00522611)
(0.0425035 -0.000410557 0.000658419)
(0.0451728 -0.000424984 -0.00135297)
(0.0536243 -0.000827415 -0.000299305)
(0.0495273 -0.00068941 -0.00248424)
(0.0494289 -0.00074036 0.000426959)
(0.0472946 -0.000662373 0.00125148)
(0.0377736 -0.000885046 -0.000906277)
(0.0266699 -0.0010524 0.00484691)
(0.0260474 -0.00127202 -0.00076781)
(0.021428 4.06465e-05 -0.00162945)
(0.0213428 0.000159563 -0.00526487)
(0.0217028 0.000337792 -0.00709712)
(0.0313892 0.00101677 -0.000552662)
(0.0677349 0.00131032 0.0092133)
(0.0722506 0.00163621 0.0144837)
(0.0503718 0.0030405 0.0112724)
(0.0501247 0.00272493 0.00976359)
(0.0523502 0.00263399 0.0103667)
(0.0574328 0.00190956 0.00962327)
(0.0652869 0.000462137 0.00750319)
(0.0705349 -0.00118319 0.00549593)
(0.0871197 -0.00238694 0.00253086)
(0.0922783 -0.00223906 0.00251575)
(0.0930963 -0.00154646 0.00146976)
(0.0900283 -0.00142773 0.00125351)
(0.085313 -0.00134958 0.00491611)
(0.0816061 -0.00177933 0.000395691)
(0.0508379 -0.00166861 0.00622571)
(0.0531988 -0.00258924 -0.000828517)
(0.0398509 0.000124112 -0.00205085)
(0.038785 0.000786885 -0.00839346)
(0.0384359 0.000957718 -0.009248)
(0.0424824 0.00197377 -0.0018365)
(0.0713244 0.00321741 0.0026355)
(0.0798617 0.00463035 0.0108953)
(0.086567 0.00572075 0.0153539)
(0.0880814 0.00565649 0.0150862)
(0.0892037 0.00574497 0.0155567)
(0.094679 0.00583274 0.0199253)
(0.0964834 0.00411052 0.0202733)
(0.100002 -0.000996953 0.0152278)
(0.104173 -0.00331463 0.0107227)
(0.097951 -0.00320281 0.0115401)
(0.102517 -0.00460267 0.0134161)
(0.129452 -0.00392916 0.00622366)
(0.131099 -0.00564788 -0.000576368)
(0.132181 -0.00389301 0.00228657)
(0.125254 -0.000939274 0.00753297)
(0.0907672 -0.000179438 0.00930562)
(0.0667087 -0.000571737 -0.000441158)
(0.0662642 0.000520053 -0.00842714)
(0.0626937 0.00249246 -0.0144864)
(0.0623956 0.00240494 -0.0114728)
(0.0803602 0.00270289 -0.0043831)
(0.108341 -0.000523967 0.00255211)
(0.099136 0.00285317 0.0101297)
(0.121352 -0.00110542 0.00831451)
(0.124583 -0.00230335 0.00921605)
(0.13301 -0.00202272 0.0117959)
(0.140509 0.00105105 0.0174372)
(0.123454 -0.00061857 0.0154124)
(0.11381 -0.00122455 0.0102764)
(0.112161 -0.00199199 0.0105569)
(0.112621 -0.00590802 0.016455)
(0.128386 -0.00937747 0.0119011)
(0.136835 -0.00704119 0.00624021)
(0.137711 -0.00677977 -0.000677362)
(0.133128 -0.00611129 0.00336146)
(0.140043 -0.00165919 0.00412857)
(0.0919465 -0.00337466 0.00504903)
(0.0851239 -0.00224023 -0.000504886)
(0.0820448 0.00282392 -0.0128957)
(0.0910553 0.00389333 -0.0101631)
(0.111133 0.00405459 -0.00433487)
(0.116865 0.00246767 -9.65232e-05)
(0.0978392 0.000286591 -0.000384532)
(0.103136 3.35769e-05 0.00134213)
(0.11572 0.000451997 0.00535128)
(0.121478 -0.000287909 0.00652025)
(0.13526 0.000474616 0.0128915)
(0.136128 0.00106246 0.0144783)
(0.129365 -0.00160619 0.00998358)
(0.130912 -0.00406414 0.00774902)
(0.13129 -0.00478541 0.0103836)
(0.137376 -0.0101773 0.0168055)
(0.134524 -0.00846508 0.00457997)
(0.136922 -0.00706809 -0.00189087)
(0.133892 -0.00622532 0.000604715)
(0.135298 -0.00639162 0.00330642)
(0.148404 0.000758074 0.0060079)
(0.112835 -0.00288794 -0.00531069)
(0.0999621 -0.000332511 -0.00776565)
(0.0931461 0.00462432 -0.0169905)
(0.0992428 0.00606601 -0.0122257)
(0.103628 0.004922 -0.00351481)
(0.105289 0.0027717 -0.00370118)
(0.106124 0.000558904 -0.00676578)
(0.120609 -0.00514245 -0.00185862)
(0.120665 -0.00479292 -0.00712211)
(0.127476 -0.00496782 8.68333e-05)
(0.12784 0.000985304 0.00492922)
(0.135797 -0.0034406 0.00314945)
(0.138229 -0.00803967 -0.00102025)
(0.14144 -0.0113706 0.000288977)
(0.144094 -0.0112714 0.0135817)
(0.13776 -0.00757044 -0.00175436)
(0.12675 -0.00625627 -0.0109512)
(0.13704 -0.0039596 -0.00627321)
(0.13356 -0.00591974 -0.00543297)
(0.141713 -0.00396609 0.00139811)
(0.15008 -0.00240631 0.00731042)
(0.120383 -0.00333952 -0.00227863)
(0.107629 0.000644213 -0.0179689)
(0.115151 0.00260562 -0.0128754)
(0.124165 0.00432812 -0.00468767)
(0.126404 0.00532951 -0.000147707)
(0.122099 0.00242789 -0.00138365)
(0.122674 0.000279607 -0.00135408)
(0.13143 -0.00334086 -0.00230944)
(0.132467 -0.00220399 -0.00520618)
(0.133859 -0.003027 -0.00566495)
(0.14836 -0.00907955 -0.00416975)
(0.136594 -0.0106043 -0.00552427)
(0.132101 -0.0093623 0.00131259)
(0.139039 -0.0111858 0.00791259)
(0.140902 -0.00218267 0.00747509)
(0.13831 0.00112847 -0.00199983)
(0.139155 -0.00363931 -0.0119591)
(0.1407 -0.00281437 -0.00953281)
(0.141513 -0.00604679 -0.00803727)
(0.153811 0.000882079 -0.00579602)
(0.145683 0.00289115 -0.00940499)
(0.112133 0.00263634 -0.0113099)
(0.140046 -8.58662e-05 -0.0119326)
(0.133237 0.00167998 -0.00931697)
(0.134256 0.00687364 -0.00356758)
(0.119728 0.0124494 0.00461779)
(0.122432 0.00578747 0.0052293)
(0.127735 0.0017897 0.00220382)
(0.128918 0.000340715 -0.00672867)
(0.141318 -0.00779104 -0.00431964)
(0.147822 -0.0099741 -0.00533685)
(0.140315 -0.00977635 -0.00767914)
(0.134304 -0.00966263 -0.00748195)
(0.132702 -0.00227679 0.000720626)
(0.143519 -0.000539018 0.00899296)
(0.142264 0.00528722 0.00782231)
(0.135342 -0.000835431 -0.00312322)
(0.145778 -0.00301129 -0.0099182)
(0.148362 -0.00192858 -0.0110745)
(0.153232 -0.00165961 -0.00362282)
(0.15624 0.000160743 -0.00487265)
(0.145728 0.00648153 -0.00911447)
(0.158651 0.00570333 -0.00460148)
(0.157118 0.00506148 -0.00629611)
(0.133024 0.00728443 -0.00349003)
(0.133784 0.00526324 0.00186123)
(0.139103 0.00448121 0.00810137)
(0.134363 0.00544955 0.0111144)
(0.138944 0.00213905 -0.00206385)
(0.144432 -0.00479526 -0.00413513)
(0.151541 -0.0078244 0.00088794)
(0.155678 -0.00721063 -0.00102829)
(0.148777 -0.00669815 -0.00532084)
(0.14697 -0.00104295 0.000435449)
(0.14587 0.00424779 0.00751371)
(0.145766 0.00361305 0.00412232)
(0.143594 -0.000137494 0.00263549)
(0.140248 0.00173115 -0.000777805)
(0.147446 0.00448817 0.00131933)
(0.158387 -0.00467582 0.00593613)
(0.160057 -0.00467284 0.00533473)
(0.161649 0.000337343 -0.0018774)
(0.156024 0.00727107 -0.00400093)
(0.154281 0.0105535 -0.0059315)
(0.153464 0.00802915 -0.00696426)
(0.146387 0.00107069 -0.00779743)
(0.143638 0.0002144 -0.00636683)
(0.14665 -0.000794079 -0.00122194)
(0.146144 0.00277701 0.00632547)
(0.150446 0.00116978 0.01009)
(0.152623 -0.00417276 0.00985659)
(0.156119 -0.0057503 0.00654196)
(0.158452 -0.00409131 0.00271574)
(0.153681 -0.00193889 0.00125943)
(0.151631 0.000459784 0.00149005)
(0.153719 0.000813214 0.00237509)
(0.157938 -0.0022211 -0.0020377)
(0.155141 -0.000474045 -0.00311925)
(0.150292 0.00309814 0.00234528)
(0.152648 -0.00164216 0.00354348)
(0.167683 -0.0110384 0.00375207)
(0.166895 -0.00760777 0.00346222)
(0.166891 0.00430613 0.000226715)
(0.169625 0.00488468 -0.00153678)
(0.166308 0.00649515 -0.00628336)
(0.159198 0.00690231 -0.0046553)
(0.156628 0.00560865 -0.00161408)
(0.15463 0.00174367 -0.00030492)
(0.152918 -0.00136898 -0.00189854)
(0.153987 -0.000555868 -0.00074646)
(0.157351 0.00226327 0.000696513)
(0.158024 -0.00281609 0.000656155)
(0.156393 0.000364297 -0.000560459)
(0.157482 0.00171183 0.000470885)
(0.159308 0.00464484 0.000210058)
(0.160277 0.00350229 -0.00050161)
(0.161775 -0.00130444 -0.00197653)
(0.160921 -0.00343132 -0.00529332)
(0.158068 0.00174345 -0.00697578)
(0.157385 -0.000111664 0.00114653)
(0.160882 -0.00372798 0.00200551)
(0.165159 -0.00467308 0.00194257)
(0.016346 -0.000296948 -0.00106048)
(0.015782 -9.50581e-05 -0.00122791)
(0.0164671 -8.77138e-08 -0.00167906)
(0.0176236 4.05911e-05 -0.00168455)
(0.0184095 1.26856e-05 -0.0013847)
(0.019201 -1.93178e-05 -0.00137967)
(0.0202311 -9.20435e-05 -0.00119785)
(0.022021 -0.000150549 0.00011185)
(0.0238148 -0.000100432 0.00236217)
(0.0238988 6.74503e-06 0.0047444)
(0.0208923 8.31046e-05 0.00609733)
(0.0170164 0.00011996 0.00613025)
(0.0149071 0.000346244 0.00583155)
(0.0147267 0.000430363 0.00536397)
(0.0167683 0.000403777 0.00303634)
(0.0180197 0.00032164 -0.000415503)
(0.0179333 7.60154e-05 -0.00295034)
(0.0174856 -0.000152345 -0.00370529)
(0.016834 -0.000464402 -0.00249096)
(0.0172268 -0.000626305 -0.00126506)
(0.0269267 -0.000555807 -0.00121316)
(0.0265793 -3.4474e-05 -0.00181152)
(0.0275617 5.99674e-05 -0.00224996)
(0.0301585 7.81155e-05 -0.00220583)
(0.030997 2.13508e-05 -0.00205028)
(0.0325662 -7.4821e-05 -0.00209238)
(0.0356489 -0.000362856 -0.00125394)
(0.0373868 -0.000429457 8.62702e-05)
(0.0414911 -0.000274095 0.00472993)
(0.0416716 -9.15188e-05 0.0068979)
(0.0378208 0.000192802 0.00910414)
(0.0280927 0.000581507 0.00913261)
(0.0246977 0.00102408 0.00877747)
(0.0256973 0.00098702 0.00706751)
(0.0295881 0.000834134 0.00245652)
(0.0313118 0.000609078 -0.000547098)
(0.0322419 -0.000168942 -0.00512504)
(0.031629 -0.000466402 -0.00538584)
(0.0298502 -0.00112954 -0.00339539)
(0.0288631 -0.00132275 -0.00148501)
(0.0457038 -0.000531347 -0.000518847)
(0.0453398 6.10315e-05 -0.000840537)
(0.0478268 0.00043647 -0.00179903)
(0.0529481 0.000313648 -0.00217796)
(0.0547003 0.000130397 -0.00225938)
(0.057998 -0.000207696 -0.00280108)
(0.0622205 -0.000790664 -0.00262084)
(0.0667592 -0.00134398 -0.000875555)
(0.0737968 -0.00136526 0.00416006)
(0.0763774 -0.000957666 0.00717364)
(0.0758882 6.76506e-05 0.0113358)
(0.0653679 0.00122213 0.0127925)
(0.0530405 0.00251015 0.0130201)
(0.0475867 0.00283633 0.0134151)
(0.0501562 0.00202262 0.00950234)
(0.0585093 0.000855954 0.00283292)
(0.0661605 -0.00078988 -0.00544234)
(0.0657283 -0.00131598 -0.00765763)
(0.0566025 -0.0029463 -0.00396226)
(0.052006 -0.0028138 -0.00173947)
(0.0704177 -0.000518059 -0.000713577)
(0.0651891 0.00163363 0.000968419)
(0.0681206 0.00264143 0.00195041)
(0.0764201 0.00200021 0.0027255)
(0.0807166 0.00145666 0.00255122)
(0.0846732 0.000935815 0.00195894)
(0.0914314 -0.000196427 0.00314773)
(0.096339 -0.000778636 0.00354919)
(0.102135 -0.00236554 0.00223461)
(0.106166 -0.00158027 0.00499061)
(0.108449 -0.00166458 0.00660477)
(0.112894 0.00146709 0.0127229)
(0.104186 0.00440734 0.0145923)
(0.0995758 0.00484617 0.0169448)
(0.0943525 0.00326326 0.0209444)
(0.0963218 -0.00110405 0.0181853)
(0.10455 -0.00440397 0.0135385)
(0.115568 -0.00441393 0.00389192)
(0.115112 -0.0040834 -0.00714074)
(0.092308 -0.00353245 -0.00443974)
(0.0890433 0.00144519 -0.00261624)
(0.0750977 0.0047616 9.68909e-05)
(0.0768663 0.00571335 0.00207064)
(0.0839933 0.00542468 0.00543519)
(0.0916065 0.00414793 0.0070608)
(0.0952275 0.00462564 0.00863062)
(0.0986882 0.00441346 0.0106568)
(0.109759 0.00275317 0.0121927)
(0.111936 0.00124761 0.0087766)
(0.112754 4.23732e-05 0.00464405)
(0.118012 -0.000974422 0.0049995)
(0.12374 -0.00139579 0.00867812)
(0.126267 0.00184437 0.0118019)
(0.124705 0.00245669 0.0134461)
(0.126754 0.00184151 0.0167201)
(0.12845 -0.00259073 0.019303)
(0.133486 -0.00744736 0.0180499)
(0.132543 -0.00927104 0.0174572)
(0.140638 -0.00711146 0.00201183)
(0.122231 -0.0027279 -0.00510489)
(0.108273 0.00373615 -0.00388909)
(0.0863745 0.00746784 -0.00301852)
(0.0841554 0.00883147 -0.00291752)
(0.0891367 0.00831352 0.000402142)
(0.100053 0.00670564 0.00487334)
(0.105817 0.00840065 0.00766815)
(0.109923 0.00890124 0.0102149)
(0.118163 0.00877722 0.0154044)
(0.122704 0.00510754 0.0132204)
(0.121213 0.00255032 0.00796237)
(0.124563 0.00247456 0.00693374)
(0.128957 0.00024304 0.00803555)
(0.125378 0.00109077 0.00476889)
(0.126952 -0.000677221 0.00137632)
(0.128115 -0.00198176 0.0057368)
(0.129966 -0.00388197 0.00939368)
(0.14368 -0.00883841 0.0104281)
(0.14387 -0.00982829 0.0167742)
(0.149169 -0.011286 0.00961703)
(0.129334 -0.000338524 -0.00395346)
(0.116347 0.00446322 -0.00500314)
(0.104369 0.00625871 -0.00498032)
(0.0977217 0.0111886 -0.00629723)
(0.0988499 0.00912919 -0.00632522)
(0.101397 0.00482937 -0.00436573)
(0.10471 0.0067317 -0.00246118)
(0.112437 0.0102996 0.00214058)
(0.119751 0.0108517 0.00703422)
(0.125752 0.00734978 0.00850878)
(0.127531 0.00139468 0.00281823)
(0.130938 0.00181135 0.00858364)
(0.132401 0.0043875 0.0113132)
(0.124974 0.0055768 -0.00137266)
(0.124774 -0.00198307 -0.0157735)
(0.132575 -0.00422568 -0.00579432)
(0.138114 -0.00678921 -0.00235662)
(0.141885 -0.00930699 -0.00360506)
(0.143466 -0.00831639 0.0040204)
(0.150091 -0.012952 0.00835837)
(0.153604 -0.00443086 0.00119854)
(0.134077 0.0033959 -0.000472246)
(0.11381 0.00803924 -0.00363963)
(0.108252 0.00939115 -0.0105294)
(0.118911 0.00318638 -0.0125756)
(0.121058 0.000658648 -0.01121)
(0.113962 0.00321725 -0.00743595)
(0.109697 0.00935671 -0.00562868)
(0.118232 0.00796882 -0.00470553)
(0.123795 0.00509826 -0.00309033)
(0.121256 -0.000537496 -0.00189847)
(0.118796 0.000509776 9.46286e-05)
(0.116832 0.0116849 -0.004354)
(0.121594 0.00521343 -0.0149994)
(0.129994 -0.00734752 -0.019813)
(0.134668 -0.00834114 -0.0176302)
(0.138206 -0.0082816 -0.013564)
(0.146356 -0.0102974 -0.0127123)
(0.148402 -0.0100576 -0.00401392)
(0.158728 -0.0126257 0.00391294)
(0.152316 -0.00168095 0.000676379)
(0.147918 0.00379761 0.000967253)
(0.14147 0.00349126 0.00126905)
(0.126214 0.00396184 0.00248315)
(0.127271 -0.00162033 0.000638386)
(0.132696 0.00116537 -0.00214077)
(0.127618 0.00288253 -0.00522637)
(0.121705 0.00381059 -0.0110058)
(0.124417 0.00223709 -0.00825027)
(0.125152 0.00204782 -0.00260658)
(0.123843 0.000731248 -0.000147594)
(0.117214 0.00497681 -0.00185845)
(0.121276 0.00951018 -0.0013145)
(0.134778 0.00656588 0.00612042)
(0.135851 -0.00175638 -0.00135923)
(0.136595 -0.00507344 -0.0104662)
(0.143073 -0.0064032 -0.0179317)
(0.149094 -0.00985913 -0.0160859)
(0.15421 -0.0109154 -0.0131097)
(0.160865 -0.0126225 0.00382229)
(0.153569 -0.00129455 0.00427777)
(0.163275 7.51873e-05 0.00101994)
(0.156921 0.00655317 0.003052)
(0.144021 0.00813381 0.00311817)
(0.12964 0.00342362 0.0020653)
(0.129958 0.00179822 0.00516016)
(0.137037 0.000914158 0.00575876)
(0.142537 -0.0011182 -0.00376073)
(0.138121 -0.00315628 -0.00939791)
(0.133286 -0.00204043 -0.00464366)
(0.136846 -0.0011173 0.00016313)
(0.138068 -0.00124256 0.000217486)
(0.140965 0.00525252 0.00530937)
(0.143281 0.00544537 0.0114185)
(0.143742 0.00379765 0.0122538)
(0.147365 -0.00124818 0.00157467)
(0.151928 -0.00589701 -0.00593501)
(0.154753 -0.00941195 -0.00895342)
(0.160196 -0.0116335 -0.0029871)
(0.163527 -0.010619 0.00448264)
(0.161887 -0.00673192 0.00761903)
(0.163562 0.00116921 -0.00154374)
(0.151755 0.00827631 -0.00170093)
(0.146082 0.00911343 -0.00149157)
(0.145714 0.00477194 -0.00380499)
(0.146203 0.0011055 -0.00241884)
(0.141698 0.002637 0.00290636)
(0.142512 0.00501597 0.00422462)
(0.146444 0.00299844 0.00236403)
(0.144505 0.0012029 -0.00110888)
(0.143886 0.00215232 -0.00190442)
(0.146477 0.00146227 -0.00238375)
(0.145262 0.00159603 -9.82261e-05)
(0.144158 0.00453168 0.00122818)
(0.150617 0.00281279 -0.00142062)
(0.157089 -0.00174256 -0.00388597)
(0.155174 -0.00271578 0.00290537)
(0.155406 -0.00406251 0.00505416)
(0.162471 -0.0108538 -0.00349241)
(0.163968 -0.0106121 -0.000539242)
(0.164087 -0.00221514 0.00407492)
(0.162856 0.00224766 0.00211811)
(0.169596 0.00360916 -0.00203722)
(0.169357 0.00393636 -0.00475725)
(0.165133 0.00585653 -0.00522783)
(0.161899 0.00596637 -0.00134438)
(0.157132 0.00250419 0.000274745)
(0.151301 0.00130251 0.000485146)
(0.151492 0.0042225 0.00140117)
(0.154853 0.00676187 0.000929327)
(0.155116 0.00560497 -0.00109867)
(0.153231 0.00281664 -0.00170385)
(0.153467 0.00423414 -6.61161e-05)
(0.15648 0.00475395 -0.00119543)
(0.158449 0.00335483 -0.00246076)
(0.158885 -0.000217914 -0.0035232)
(0.156877 -0.00260779 -0.00411296)
(0.156054 -0.00480726 -0.00365455)
(0.156963 -0.00771324 -0.0035265)
(0.157365 -0.00810014 -0.00346809)
(0.158709 -0.00324605 -0.000617351)
(0.0142944 -0.000114571 0.00114656)
(0.0136474 -3.35033e-05 -0.000356575)
(0.0143525 -3.02098e-05 -0.001629)
(0.015694 -3.43078e-05 -0.00147394)
(0.016251 -8.75401e-05 -0.000500445)
(0.0162957 -7.81635e-05 -0.000203845)
(0.0163105 -5.43609e-05 -0.000129227)
(0.0165414 1.05728e-05 0.000672443)
(0.0163556 0.000157021 0.00209917)
(0.0154832 0.000281313 0.00369152)
(0.0143967 0.000284997 0.00429467)
(0.0144226 0.000252031 0.00336639)
(0.0150395 0.00037046 0.0013913)
(0.0158969 0.000463386 -0.000155245)
(0.0170528 0.000326871 -0.0013377)
(0.0172204 3.32563e-05 -0.00164537)
(0.0160805 -0.000332897 -0.00108516)
(0.0154995 -0.000561793 0.000183829)
(0.0156072 -0.000621913 0.00229899)
(0.0154432 -0.000341927 0.0027794)
(0.0232674 -0.000164158 0.000578821)
(0.0230095 -8.37554e-05 -0.000726531)
(0.0242763 -8.48975e-05 -0.00235136)
(0.026344 -0.000107056 -0.0020628)
(0.0273774 -0.000212318 -0.000836979)
(0.02781 -0.000192039 -0.00043644)
(0.0282418 -0.000140524 -0.000118468)
(0.0285891 2.02046e-05 0.00117196)
(0.0280501 0.000484364 0.00452279)
(0.0271759 0.000671288 0.00605089)
(0.0246338 0.000723921 0.00674041)
(0.0243285 0.000729714 0.00549408)
(0.0254842 0.00105011 0.00157316)
(0.0268206 0.00107299 0.000276226)
(0.0296919 0.00063467 -0.00152373)
(0.031109 -0.000410732 -0.00173008)
(0.0299449 -0.000891465 -0.00127554)
(0.0272789 -0.00139777 0.00132204)
(0.0267429 -0.00135302 0.00307817)
(0.0255267 -0.000718896 0.00358347)
(0.0421848 -0.00048824 0.00168111)
(0.0411482 -0.000156476 -0.000989248)
(0.0432183 -0.000176758 -0.0031093)
(0.0476004 -0.000382127 -0.00214943)
(0.0493396 -0.000672683 -0.00121333)
(0.0503939 -0.000689419 -0.00124212)
(0.053755 -0.000540791 -0.000197432)
(0.0545058 -0.000220808 0.000955693)
(0.0541323 0.000814784 0.00551603)
(0.0527161 0.00173098 0.0100572)
(0.0489945 0.00226114 0.0119009)
(0.0450219 0.00249529 0.00934851)
(0.0454815 0.00285712 0.00580731)
(0.0509826 0.0023235 0.00313888)
(0.0593104 0.000527055 0.000675381)
(0.0638365 -0.000703131 8.78489e-05)
(0.0631217 -0.00268781 -0.000600301)
(0.0576173 -0.00321881 0.000147491)
(0.0502172 -0.00317989 0.00335905)
(0.0455932 -0.00156983 0.00442823)
(0.0668836 0.000457555 0.000320242)
(0.064231 0.000607272 -0.00278424)
(0.0654031 0.000462978 -0.00394371)
(0.071238 0.000195932 -0.00161829)
(0.0730079 -0.000367734 -0.000266868)
(0.0759507 -0.00148042 -0.00166713)
(0.0792816 -0.0018618 -0.00227895)
(0.0894053 -0.00101021 -0.000934878)
(0.0923483 -0.000295764 -8.45459e-05)
(0.0924896 0.000849996 0.00311952)
(0.0899144 0.00209335 0.00890671)
(0.0873133 0.00536098 0.015935)
(0.082176 0.0059256 0.0149343)
(0.0838086 0.00481145 0.0165966)
(0.089187 0.00276259 0.0174806)
(0.107611 -0.00274217 0.0174757)
(0.11708 -0.00395909 0.0125534)
(0.115614 -0.00387794 0.0063563)
(0.093653 -0.00507816 0.0040156)
(0.0731521 -0.00111555 0.00368429)
(0.083396 0.00330623 -0.00144545)
(0.0786755 0.00358343 -0.00501202)
(0.0774596 0.00300461 -0.0059789)
(0.0808542 0.002188 -0.00102494)
(0.0833818 0.0014368 0.00209487)
(0.0841519 0.00128544 0.00163201)
(0.0878523 0.000428575 -0.000386798)
(0.0998776 0.000232705 0.000252641)
(0.108449 -7.66658e-05 -0.000116489)
(0.113087 0.000715749 0.000629143)
(0.109965 0.00094215 0.00456095)
(0.109085 0.00431827 0.0111415)
(0.110595 0.00689609 0.0135248)
(0.112468 0.00533897 0.0156549)
(0.116259 0.00306656 0.0180131)
(0.131938 -0.00270301 0.0178991)
(0.135389 -0.00504989 0.0206996)
(0.141969 -0.00326555 0.0160529)
(0.116414 -0.00263958 0.00670095)
(0.0979186 -0.000801143 0.00561262)
(0.0963938 0.00590374 0.000754652)
(0.0922748 0.00795189 -0.00572901)
(0.0893929 0.00743819 -0.0087917)
(0.0881432 0.00482149 -0.00272987)
(0.0897861 0.00399223 0.00247734)
(0.0906285 0.00514761 0.00257396)
(0.0939255 0.0063039 -0.000549429)
(0.107201 0.00646405 0.00312171)
(0.116435 0.00324347 0.00464359)
(0.124033 0.00167461 0.00371979)
(0.12631 0.00123821 0.00567705)
(0.119721 0.00304437 0.00499827)
(0.117468 0.00576843 0.00312252)
(0.122962 0.00523383 0.00344385)
(0.126691 0.00157767 0.00916059)
(0.129931 -0.000920088 0.00729243)
(0.134814 -0.00478422 0.00941406)
(0.143989 -0.00394417 0.0118299)
(0.149901 -0.000518349 0.00819161)
(0.108381 0.00273955 0.00631865)
(0.108126 0.0030703 0.0051995)
(0.0998666 0.00859013 -0.00248103)
(0.0983556 0.00970582 -0.0115042)
(0.0993843 0.00585044 -0.00626901)
(0.095933 0.00343555 0.000388982)
(0.095042 0.00858352 -0.000768777)
(0.100688 0.0125072 -0.0039133)
(0.111381 0.0137224 0.00108336)
(0.121735 0.0086608 0.00480793)