# Force coefficients		
# dragDir     : (1.000000e+00 0.000000e+00 0.000000e+00)		
# sideDir     : (0.000000e+00 0.000000e+00 -1.000000e+00)		
# liftDir     : (0.000000e+00 1.000000e+00 0.000000e+00)		
# rollAxis    : (1.000000e+00 0.000000e+00 0.000000e+00)		
# pitchAxis   : (0.000000e+00 0.000000e+00 -1.000000e+00)		
# yawAxis     : (0.000000e+00 1.000000e+00 0.000000e+00)		
# magUInf     : 1.000000e-04		
# lRef        : 1.000000e+00		
# Aref        : 1.000000e+00		
# CofR        : (0.000000e+00 0.000000e+00 0.000000e+00)		
#		
# Time        	Cd            	Cl            
100.01	1.684500e+00	1.986086e-01
100.02	1.684569e+00	1.993858e-01
100.03	1.684644e+00	2.001554e-01
100.04	1.684744e+00	2.009103e-01
100.05	1.684811e+00	2.016486e-01
100.06	1.684858e+00	2.023867e-01
100.07	1.684947e+00	2.031083e-01
100.08	1.685030e+00	2.038113e-01
100.09	1.685115e+00	2.044887e-01
100.1	1.685188e+00	2.051780e-01
100.11	1.685250e+00	2.058663e-01
100.12	1.685323e+00	2.064960e-01
100.13	1.685402e+00	2.071464e-01
100.14	1.685471e+00	2.077911e-01
100.15	1.685560e+00	2.083916e-01
100.16	1.685632e+00	2.090003e-01
100.17	1.685690e+00	2.095833e-01
100.18	1.685766e+00	2.101537e-01
100.19	1.685825e+00	2.107205e-01
100.2	1.685904e+00	2.112484e-01
100.21	1.685996e+00	2.117847e-01
100.22	1.686053e+00	2.123097e-01
100.23	1.686124e+00	2.128023e-01
100.24	1.686199e+00	2.132963e-01
100.25	1.686268e+00	2.137787e-01
100.26	1.686328e+00	2.142419e-01
100.27	1.686410e+00	2.146924e-01
100.28	1.686498e+00	2.151354e-01
100.29	1.686548e+00	2.155556e-01
100.3	1.686605e+00	2.159608e-01
100.31	1.686662e+00	2.163655e-01
100.32	1.686720e+00	2.167393e-01
100.33	1.686794e+00	2.171008e-01
100.34	1.686876e+00	2.174471e-01
100.35	1.686935e+00	2.177789e-01
100.36	1.687001e+00	2.181084e-01
100.37	1.687066e+00	2.184274e-01
100.38	1.687139e+00	2.187130e-01
100.39	1.687199e+00	2.189781e-01
100.4	1.687253e+00	2.192690e-01
100.41	1.687319e+00	2.195310e-01
100.42	1.687376e+00	2.197545e-01
100.43	1.687436e+00	2.199808e-01
100.44	1.687472e+00	2.201930e-01
100.45	1.687525e+00	2.203972e-01
100.46	1.687568e+00	2.205694e-01
100.47	1.687630e+00	2.207443e-01
100.48	1.687704e+00	2.208994e-01
100.49	1.687775e+00	2.210228e-01
100.5	1.687828e+00	2.211473e-01
100.51	1.687872e+00	2.212706e-01
100.52	1.687924e+00	2.213759e-01
100.53	1.687970e+00	2.214373e-01
100.54	1.688013e+00	2.214858e-01
100.55	1.688043e+00	2.215722e-01
100.56	1.688083e+00	2.216038e-01
100.57	1.688147e+00	2.216210e-01
100.58	1.688183e+00	2.216267e-01
100.59	1.688214e+00	2.216322e-01
100.6	1.688252e+00	2.216154e-01
100.61	1.688297e+00	2.215810e-01
100.62	1.688357e+00	2.215298e-01
100.63	1.688416e+00	2.214641e-01
100.64	1.688457e+00	2.213964e-01
100.65	1.688493e+00	2.213047e-01
100.66	1.688498e+00	2.212039e-01
100.67	1.688565e+00	2.210953e-01
100.68	1.688626e+00	2.209471e-01
100.69	1.688645e+00	2.207917e-01
100.7	1.688660e+00	2.206473e-01
100.71	1.688685e+00	2.204768e-01
100.72	1.688732e+00	2.202760e-01
100.73	1.688765e+00	2.200753e-01
100.74	1.688785e+00	2.198836e-01
100.75	1.688802e+00	2.196486e-01
100.76	1.688881e+00	2.193971e-01
100.77	1.688897e+00	2.191221e-01
100.78	1.688931e+00	2.188505e-01
100.79	1.688965e+00	2.185718e-01
100.8	1.688983e+00	2.182884e-01
100.81	1.688974e+00	2.179670e-01
100.82	1.689019e+00	2.176242e-01
100.83	1.689051e+00	2.172755e-01
100.84	1.689085e+00	2.169238e-01
100.85	1.689081e+00	2.165611e-01
100.86	1.689109e+00	2.161803e-01
100.87	1.689143e+00	2.157810e-01
100.88	1.689165e+00	2.153687e-01
100.89	1.689157e+00	2.149550e-01
100.9	1.689143e+00	2.145056e-01
100.91	1.689190e+00	2.140510e-01
100.92	1.689223e+00	2.135831e-01
100.93	1.689229e+00	2.131034e-01
100.94	1.689214e+00	2.126084e-01
100.95	1.689209e+00	2.120933e-01
100.96	1.689248e+00	2.115719e-01
100.97	1.689259e+00	2.110371e-01
100.98	1.689267e+00	2.104956e-01
100.99	1.689282e+00	2.099190e-01
101	1.689303e+00	2.093518e-01
101.01	1.689281e+00	2.087705e-01
101.02	1.689266e+00	2.081693e-01
101.03	1.689280e+00	2.075524e-01
101.04	1.689309e+00	2.069241e-01
101.05	1.689280e+00	2.063008e-01
101.06	1.689266e+00	2.056201e-01
101.07	1.689275e+00	2.049474e-01
101.08	1.689291e+00	2.042813e-01
101.09	1.689288e+00	2.035933e-01
101.1	1.689269e+00	2.028758e-01
101.11	1.689281e+00	2.021591e-01
101.12	1.689256e+00	2.014248e-01
101.13	1.689246e+00	2.006842e-01
101.14	1.689229e+00	1.999204e-01
101.15	1.689239e+00	1.991433e-01
101.16	1.689245e+00	1.983676e-01
101.17	1.689200e+00	1.975816e-01
101.18	1.689180e+00	1.967636e-01
101.19	1.689162e+00	1.959370e-01
101.2	1.689136e+00	1.951069e-01
101.21	1.689114e+00	1.942666e-01
101.22	1.689113e+00	1.934011e-01
101.23	1.689068e+00	1.925352e-01
101.24	1.689050e+00	1.916553e-01
101.25	1.689041e+00	1.907371e-01
101.26	1.689032e+00	1.898305e-01
101.27	1.688990e+00	1.889208e-01
101.28	1.688978e+00	1.880029e-01
101.29	1.688941e+00	1.870530e-01
101.3	1.688902e+00	1.860803e-01
101.31	1.688864e+00	1.851091e-01
101.32	1.688836e+00	1.841259e-01
101.33	1.688779e+00	1.831395e-01
101.34	1.688754e+00	1.821606e-01
101.35	1.688720e+00	1.811510e-01
101.36	1.688712e+00	1.801164e-01
101.37	1.688709e+00	1.790633e-01
101.38	1.688626e+00	1.780089e-01
101.39	1.688598e+00	1.769675e-01
101.4	1.688567e+00	1.758835e-01
101.41	1.688547e+00	1.747922e-01
101.42	1.688500e+00	1.737034e-01
101.43	1.688423e+00	1.725990e-01
101.44	1.688389e+00	1.714779e-01
101.45	1.688352e+00	1.703539e-01
101.46	1.688306e+00	1.692205e-01
101.47	1.688260e+00	1.680662e-01
101.48	1.688230e+00	1.669065e-01
101.49	1.688185e+00	1.657374e-01
101.5	1.688149e+00	1.645650e-01
101.51	1.688094e+00	1.633777e-01
101.52	1.688054e+00	1.621696e-01
101.53	1.687983e+00	1.609515e-01
101.54	1.687934e+00	1.597322e-01
101.55	1.687872e+00	1.584926e-01
101.56	1.687827e+00	1.572480e-01
101.57	1.687781e+00	1.560023e-01
101.58	1.687752e+00	1.547431e-01
101.59	1.687702e+00	1.534699e-01
101.6	1.687644e+00	1.521889e-01
101.61	1.687569e+00	1.508974e-01
101.62	1.687512e+00	1.495894e-01
101.63	1.687478e+00	1.482909e-01
101.64	1.687419e+00	1.469650e-01
101.65	1.687374e+00	1.456367e-01
101.66	1.687289e+00	1.443074e-01
101.67	1.687196e+00	1.429523e-01
101.68	1.687166e+00	1.415808e-01
101.69	1.687106e+00	1.402183e-01
101.7	1.687043e+00	1.388481e-01
101.71	1.686984e+00	1.374498e-01
101.72	1.686942e+00	1.360612e-01
101.73	1.686881e+00	1.346710e-01
101.74	1.686816e+00	1.332573e-01
101.75	1.686766e+00	1.318392e-01
101.76	1.686675e+00	1.304198e-01
101.77	1.686608e+00	1.289867e-01
101.78	1.686542e+00	1.275415e-01
101.79	1.686484e+00	1.260694e-01
101.8	1.686422e+00	1.246163e-01
101.81	1.686374e+00	1.231686e-01
101.82	1.686289e+00	1.216912e-01
101.83	1.686249e+00	1.202173e-01
101.84	1.686177e+00	1.187241e-01
101.85	1.686102e+00	1.172260e-01
101.86	1.686035e+00	1.157066e-01
101.87	1.685987e+00	1.141949e-01
101.88	1.685942e+00	1.126798e-01
101.89	1.685865e+00	1.111499e-01
101.9	1.685790e+00	1.096349e-01
101.91	1.685725e+00	1.080962e-01
101.92	1.685665e+00	1.065442e-01
101.93	1.685577e+00	1.049833e-01
101.94	1.685503e+00	1.034349e-01
101.95	1.685455e+00	1.018742e-01
101.96	1.685427e+00	1.003193e-01
101.97	1.685364e+00	9.874689e-02
101.98	1.685291e+00	9.715525e-02
101.99	1.685247e+00	9.555139e-02
102	1.685153e+00	9.395596e-02
102.01	1.685072e+00	9.234788e-02
102.02	1.685007e+00	9.073548e-02
102.03	1.684946e+00	8.911470e-02
102.04	1.684895e+00	8.750242e-02
102.05	1.684852e+00	8.587700e-02
102.06	1.684764e+00	8.425112e-02
102.07	1.684687e+00	8.262228e-02
102.08	1.684616e+00	8.097315e-02
102.09	1.684567e+00	7.933188e-02
102.1	1.684527e+00	7.768776e-02
102.11	1.684461e+00	7.603801e-02
102.12	1.684388e+00	7.436703e-02
102.13	1.684339e+00	7.271167e-02
102.14	1.684266e+00	7.104554e-02
102.15	1.684219e+00	6.934312e-02
102.16	1.684146e+00	6.768370e-02
102.17	1.684084e+00	6.598750e-02
102.18	1.684036e+00	6.431149e-02
102.19	1.683968e+00	6.262467e-02
102.2	1.683925e+00	6.094031e-02
102.21	1.683861e+00	5.925054e-02
102.22	1.683806e+00	5.755851e-02
102.23	1.683761e+00	5.585450e-02
102.24	1.683703e+00	5.414151e-02
102.25	1.683649e+00	5.242085e-02
102.26	1.683590e+00	5.071062e-02
102.27	1.683531e+00	4.899969e-02
102.28	1.683496e+00	4.728250e-02
102.29	1.683413e+00	4.553996e-02
102.3	1.683371e+00	4.384948e-02
102.31	1.683316e+00	4.210500e-02
102.32	1.683263e+00	4.038363e-02
102.33	1.683224e+00	3.867052e-02
102.34	1.683175e+00	3.692283e-02
102.35	1.683137e+00	3.518437e-02
102.36	1.683096e+00	3.345493e-02
102.37	1.683043e+00	3.171526e-02
102.38	1.682976e+00	2.997404e-02
102.39	1.682939e+00	2.824085e-02
102.4	1.682904e+00	2.649464e-02
102.41	1.682875e+00	2.474581e-02
102.42	1.682858e+00	2.298989e-02
102.43	1.682787e+00	2.126465e-02
102.44	1.682725e+00	1.952645e-02
102.45	1.682715e+00	1.777875e-02
102.46	1.682697e+00	1.605398e-02
102.47	1.682665e+00	1.426514e-02
102.48	1.682610e+00	1.253881e-02
102.49	1.682563e+00	1.078431e-02
102.5	1.682505e+00	9.016539e-03
102.51	1.682493e+00	7.258069e-03
102.52	1.682464e+00	5.517801e-03
102.53	1.682444e+00	3.774371e-03
102.54	1.682435e+00	2.040458e-03
102.55	1.682394e+00	2.691706e-04
102.56	1.682353e+00	-1.458728e-03
102.57	1.682315e+00	-3.206328e-03
102.58	1.682310e+00	-4.950756e-03
102.59	1.682306e+00	-6.689800e-03
102.6	1.682297e+00	-8.430476e-03
102.61	1.682258e+00	-1.019248e-02
102.62	1.682215e+00	-1.193500e-02
102.63	1.682185e+00	-1.367776e-02
102.64	1.682169e+00	-1.542227e-02
102.65	1.682167e+00	-1.715607e-02
102.66	1.682159e+00	-1.888089e-02
102.67	1.682155e+00	-2.062056e-02
102.68	1.682133e+00	-2.234969e-02
102.69	1.682118e+00	-2.408128e-02
102.7	1.682071e+00	-2.580594e-02
102.71	1.682077e+00	-2.754195e-02
102.72	1.682101e+00	-2.924327e-02
102.73	1.682109e+00	-3.094960e-02
102.74	1.682050e+00	-3.270988e-02
102.75	1.682038e+00	-3.443139e-02
102.76	1.682063e+00	-3.612902e-02
102.77	1.682066e+00	-3.784084e-02
102.78	1.682043e+00	-3.953724e-02
102.79	1.682038e+00	-4.122365e-02
102.8	1.682051e+00	-4.294161e-02
102.81	1.682080e+00	-4.462604e-02
102.82	1.682106e+00	-4.631674e-02
102.83	1.682088e+00	-4.801047e-02
102.84	1.682056e+00	-4.970430e-02
102.85	1.682070e+00	-5.137333e-02
102.86	1.682065e+00	-5.307342e-02
102.87	1.682089e+00	-5.472935e-02
102.88	1.682090e+00	-5.640611e-02
102.89	1.682114e+00	-5.807164e-02
102.9	1.682136e+00	-5.973702e-02
102.91	1.682183e+00	-6.137643e-02
102.92	1.682150e+00	-6.303023e-02
102.93	1.682154e+00	-6.467435e-02
102.94	1.682182e+00	-6.631839e-02
102.95	1.682215e+00	-6.795665e-02
102.96	1.682212e+00	-6.957097e-02
102.97	1.682245e+00	-7.120245e-02
102.98	1.682298e+00	-7.280359e-02
102.99	1.682323e+00	-7.440467e-02
103	1.682348e+00	-7.602508e-02
103.01	1.682357e+00	-7.766145e-02
103.02	1.682418e+00	-7.922917e-02
103.03	1.682437e+00	-8.082976e-02
103.04	1.682447e+00	-8.240864e-02
103.05	1.682497e+00	-8.397887e-02
103.06	1.682527e+00	-8.556538e-02
103.07	1.682546e+00	-8.713022e-02
103.08	1.682601e+00	-8.866519e-02
103.09	1.682633e+00	-9.021435e-02
103.1	1.682686e+00	-9.174200e-02
103.11	1.682716e+00	-9.329283e-02
103.12	1.682754e+00	-9.483921e-02
103.13	1.682789e+00	-9.633628e-02
103.14	1.682830e+00	-9.787216e-02
103.15	1.682869e+00	-9.937827e-02
103.16	1.682913e+00	-1.008934e-01
103.17	1.682984e+00	-1.023654e-01
103.18	1.683035e+00	-1.038439e-01
103.19	1.683080e+00	-1.053359e-01
103.2	1.683144e+00	-1.068114e-01
103.21	1.683176e+00	-1.082385e-01
103.22	1.683207e+00	-1.097063e-01
103.23	1.683273e+00	-1.111691e-01
103.24	1.683342e+00	-1.125808e-01
103.25	1.683399e+00	-1.139988e-01
103.26	1.683457e+00	-1.154267e-01
103.27	1.683489e+00	-1.168668e-01
103.28	1.683544e+00	-1.182579e-01
103.29	1.683613e+00	-1.196369e-01
103.3	1.683689e+00	-1.210190e-01
103.31	1.683757e+00	-1.224023e-01
103.32	1.683823e+00	-1.237989e-01
103.33	1.683891e+00	-1.251302e-01
103.34	1.683924e+00	-1.264717e-01
103.35	1.683983e+00	-1.278163e-01
103.36	1.684054e+00	-1.291371e-01
103.37	1.684134e+00	-1.304498e-01
103.38	1.684193e+00	-1.317644e-01
103.39	1.684257e+00	-1.330625e-01
103.4	1.684346e+00	-1.343550e-01
103.41	1.684417e+00	-1.356348e-01
103.42	1.684475e+00	-1.369005e-01
103.43	1.684535e+00	-1.381634e-01
103.44	1.684608e+00	-1.394128e-01
103.45	1.684691e+00	-1.406656e-01
103.46	1.684755e+00	-1.418837e-01
103.47	1.684814e+00	-1.430742e-01
103.48	1.684894e+00	-1.443002e-01
103.49	1.684981e+00	-1.454969e-01
103.5	1.685072e+00	-1.466864e-01
103.51	1.685143e+00	-1.478678e-01
103.52	1.685197e+00	-1.490276e-01
103.53	1.685262e+00	-1.501719e-01
103.54	1.685332e+00	-1.513254e-01
103.55	1.685428e+00	-1.524543e-01
103.56	1.685515e+00	-1.535712e-01
103.57	1.685609e+00	-1.546868e-01
103.58	1.685689e+00	-1.557849e-01
103.59	1.685797e+00	-1.568661e-01
103.6	1.685848e+00	-1.579265e-01
103.61	1.685922e+00	-1.589915e-01
103.62	1.686004e+00	-1.600539e-01
103.63	1.686083e+00	-1.611090e-01
103.64	1.686185e+00	-1.620964e-01
103.65	1.686267e+00	-1.631133e-01
103.66	1.686364e+00	-1.641116e-01
103.67	1.686436e+00	-1.651057e-01
103.68	1.686506e+00	-1.661136e-01
103.69	1.686584e+00	-1.670971e-01
103.7	1.686684e+00	-1.680411e-01
103.71	1.686769e+00	-1.689755e-01
103.72	1.686844e+00	-1.699032e-01
103.73	1.686926e+00	-1.708089e-01
103.74	1.686977e+00	-1.717166e-01
103.75	1.687084e+00	-1.726181e-01
103.76	1.687166e+00	-1.734973e-01
103.77	1.687264e+00	-1.743661e-01
103.78	1.687359e+00	-1.752169e-01
103.79	1.687433e+00	-1.760681e-01
103.8	1.687522e+00	-1.769077e-01
103.81	1.687617e+00	-1.777187e-01
103.82	1.687717e+00	-1.785344e-01
103.83	1.687752e+00	-1.793093e-01
103.84	1.687831e+00	-1.800966e-01
103.85	1.687909e+00	-1.808651e-01
103.86	1.688000e+00	-1.816029e-01
103.87	1.688081e+00	-1.823443e-01
103.88	1.688162e+00	-1.830764e-01
103.89	1.688249e+00	-1.837983e-01
103.9	1.688343e+00	-1.844841e-01
103.91	1.688437e+00	-1.851557e-01
103.92	1.688529e+00	-1.858442e-01
103.93	1.688574e+00	-1.865182e-01
103.94	1.688666e+00	-1.871688e-01
103.95	1.688736e+00	-1.877778e-01
103.96	1.688815e+00	-1.883891e-01
103.97	1.688900e+00	-1.890131e-01
103.98	1.688978e+00	-1.895972e-01
103.99	1.689050e+00	-1.901643e-01
104	1.689115e+00	-1.907297e-01
104.01	1.689196e+00	-1.912763e-01
104.02	1.689286e+00	-1.918050e-01
104.03	1.689353e+00	-1.923495e-01
104.04	1.689428e+00	-1.928591e-01
104.05	1.689510e+00	-1.933424e-01
104.06	1.689595e+00	-1.938296e-01
104.07	1.689645e+00	-1.942915e-01
104.08	1.689712e+00	-1.947371e-01
104.09	1.689802e+00	-1.951801e-01
104.1	1.689872e+00	-1.956004e-01
104.11	1.689918e+00	-1.960205e-01
104.12	1.689990e+00	-1.964147e-01
104.13	1.690078e+00	-1.967958e-01
104.14	1.690124e+00	-1.971681e-01
104.15	1.690212e+00	-1.975128e-01
104.16	1.690294e+00	-1.978558e-01
104.17	1.690354e+00	-1.981845e-01
104.18	1.690417e+00	-1.984971e-01
104.19	1.690465e+00	-1.987828e-01
104.2	1.690524e+00	-1.990522e-01
104.21	1.690600e+00	-1.993354e-01
104.22	1.690678e+00	-1.996088e-01
104.23	1.690694e+00	-1.998266e-01
104.24	1.690749e+00	-2.000373e-01
104.25	1.690822e+00	-2.002651e-01
104.26	1.690866e+00	-2.004744e-01
104.27	1.690915e+00	-2.006404e-01
104.28	1.690966e+00	-2.008069e-01
104.29	1.691031e+00	-2.009591e-01
104.3	1.691095e+00	-2.010982e-01
104.31	1.691130e+00	-2.012284e-01
104.32	1.691183e+00	-2.013274e-01
104.33	1.691227e+00	-2.014198e-01
104.34	1.691305e+00	-2.015064e-01
104.35	1.691335e+00	-2.015627e-01
104.36	1.691369e+00	-2.016159e-01
104.37	1.691397e+00	-2.016451e-01
104.38	1.691438e+00	-2.016648e-01
104.39	1.691494e+00	-2.016689e-01
104.4	1.691520e+00	-2.016770e-01
104.41	1.691572e+00	-2.016677e-01
104.42	1.691595e+00	-2.016245e-01
104.43	1.691632e+00	-2.015592e-01
104.44	1.691689e+00	-2.014935e-01
104.45	1.691734e+00	-2.014203e-01
104.46	1.691761e+00	-2.013425e-01
104.47	1.691783e+00	-2.012171e-01
104.48	1.691799e+00	-2.010969e-01
104.49	1.691830e+00	-2.009568e-01
104.5	1.691871e+00	-2.007953e-01
104.51	1.691896e+00	-2.006366e-01
104.52	1.691919e+00	-2.004630e-01
104.53	1.691946e+00	-2.002685e-01
104.54	1.691955e+00	-2.000560e-01
104.55	1.691993e+00	-1.998377e-01
104.56	1.691998e+00	-1.995931e-01
104.57	1.692051e+00	-1.993564e-01
104.58	1.692084e+00	-1.990817e-01
104.59	1.692074e+00	-1.987904e-01
104.6	1.692118e+00	-1.985179e-01
104.61	1.692109e+00	-1.982171e-01
104.62	1.692107e+00	-1.978794e-01
104.63	1.692145e+00	-1.975399e-01
104.64	1.692177e+00	-1.971904e-01
104.65	1.692170e+00	-1.968182e-01
104.66	1.692211e+00	-1.964556e-01
104.67	1.692185e+00	-1.960590e-01
104.68	1.692189e+00	-1.956617e-01
104.69	1.692190e+00	-1.952559e-01
104.7	1.692230e+00	-1.948109e-01
104.71	1.692226e+00	-1.943542e-01
104.72	1.692202e+00	-1.938916e-01
104.73	1.692218e+00	-1.934145e-01
104.74	1.692219e+00	-1.929259e-01
104.75	1.692212e+00	-1.924158e-01
104.76	1.692204e+00	-1.919058e-01
104.77	1.692239e+00	-1.913806e-01
104.78	1.692211e+00	-1.908434e-01
104.79	1.692205e+00	-1.902851e-01
104.8	1.692200e+00	-1.897122e-01
104.81	1.692193e+00	-1.891270e-01
104.82	1.692200e+00	-1.885483e-01
104.83	1.692179e+00	-1.879300e-01
104.84	1.692146e+00	-1.873050e-01
104.85	1.692131e+00	-1.866611e-01
104.86	1.692127e+00	-1.859936e-01
104.87	1.692113e+00	-1.853321e-01
104.88	1.692103e+00	-1.846642e-01
104.89	1.692071e+00	-1.839808e-01
104.9	1.692050e+00	-1.832632e-01
104.91	1.692037e+00	-1.825448e-01
104.92	1.692001e+00	-1.818181e-01
104.93	1.691983e+00	-1.810797e-01
104.94	1.691970e+00	-1.803306e-01
104.95	1.691927e+00	-1.795570e-01
104.96	1.691898e+00	-1.787615e-01
104.97	1.691889e+00	-1.779697e-01
104.98	1.691857e+00	-1.771640e-01
104.99	1.691800e+00	-1.763553e-01
105	1.691767e+00	-1.755283e-01
105.01	1.691742e+00	-1.746702e-01
105.02	1.691716e+00	-1.738038e-01
105.03	1.691667e+00	-1.729385e-01
105.04	1.691615e+00	-1.720626e-01
105.05	1.691601e+00	-1.711635e-01
105.06	1.691559e+00	-1.702583e-01
105.07	1.691507e+00	-1.693425e-01
105.08	1.691443e+00	-1.684055e-01
105.09	1.691423e+00	-1.674601e-01
105.1	1.691380e+00	-1.665020e-01
105.11	1.691314e+00	-1.655292e-01
105.12	1.691285e+00	-1.645528e-01
105.13	1.691240e+00	-1.635611e-01
105.14	1.691182e+00	-1.625552e-01
105.15	1.691121e+00	-1.615584e-01
105.16	1.691076e+00	-1.605301e-01
105.17	1.691020e+00	-1.594901e-01
105.18	1.690954e+00	-1.584379e-01
105.19	1.690920e+00	-1.573668e-01
105.2	1.690871e+00	-1.562936e-01
105.21	1.690810e+00	-1.552119e-01
105.22	1.690749e+00	-1.541135e-01
105.23	1.690672e+00	-1.530092e-01
105.24	1.690619e+00	-1.518939e-01
105.25	1.690564e+00	-1.507636e-01
105.26	1.690493e+00	-1.496146e-01
105.27	1.690422e+00	-1.484593e-01
105.28	1.690354e+00	-1.473102e-01
105.29	1.690310e+00	-1.461459e-01
105.3	1.690256e+00	-1.449662e-01
105.31	1.690160e+00	-1.437619e-01
105.32	1.690096e+00	-1.425657e-01
105.33	1.690016e+00	-1.413475e-01
105.34	1.689960e+00	-1.401176e-01
105.35	1.689912e+00	-1.388794e-01
105.36	1.689836e+00	-1.376404e-01
105.37	1.689761e+00	-1.363857e-01
105.38	1.689666e+00	-1.351171e-01
105.39	1.689604e+00	-1.338483e-01
105.4	1.689523e+00	-1.325637e-01
105.41	1.689442e+00	-1.312782e-01
105.42	1.689368e+00	-1.299694e-01
105.43	1.689281e+00	-1.286427e-01
105.44	1.689205e+00	-1.273343e-01
105.45	1.689138e+00	-1.259946e-01
105.46	1.689044e+00	-1.246710e-01
105.47	1.688956e+00	-1.233022e-01
105.48	1.688890e+00	-1.219458e-01
105.49	1.688836e+00	-1.205812e-01
105.5	1.688738e+00	-1.191830e-01
105.51	1.688630e+00	-1.177877e-01
105.52	1.688541e+00	-1.164060e-01
105.53	1.688495e+00	-1.150096e-01
105.54	1.688405e+00	-1.135956e-01
105.55	1.688316e+00	-1.121593e-01
105.56	1.688242e+00	-1.107459e-01
105.57	1.688134e+00	-1.093037e-01
105.58	1.688067e+00	-1.078579e-01
105.59	1.687984e+00	-1.064167e-01
105.6	1.687899e+00	-1.049458e-01
105.61	1.687791e+00	-1.034820e-01
105.62	1.687698e+00	-1.020192e-01
105.63	1.687617e+00	-1.005107e-01
105.64	1.687540e+00	-9.901111e-02
105.65	1.687470e+00	-9.751664e-02
105.66	1.687380e+00	-9.601443e-02
105.67	1.687282e+00	-9.449203e-02
105.68	1.687216e+00	-9.298137e-02
105.69	1.687127e+00	-9.144995e-02
105.7	1.687030e+00	-8.990770e-02
105.71	1.686939e+00	-8.835678e-02
105.72	1.686848e+00	-8.680363e-02
105.73	1.686763e+00	-8.525665e-02
105.74	1.686674e+00	-8.368954e-02
105.75	1.686590e+00	-8.211925e-02
105.76	1.686525e+00	-8.054144e-02
105.77	1.686425e+00	-7.898334e-02
105.78	1.686330e+00	-7.738388e-02
105.79	1.686222e+00	-7.577798e-02
105.8	1.686142e+00	-7.418235e-02
105.81	1.686071e+00	-7.256179e-02
105.82	1.685994e+00	-7.093973e-02
105.83	1.685893e+00	-6.933672e-02
105.84	1.685799e+00	-6.771856e-02
105.85	1.685709e+00	-6.609741e-02
105.86	1.685625e+00	-6.446617e-02
105.87	1.685525e+00	-6.280645e-02
105.88	1.685448e+00	-6.117186e-02
105.89	1.685395e+00	-5.951666e-02
105.9	1.685281e+00	-5.785337e-02
105.91	1.685141e+00	-5.618439e-02
105.92	1.685107e+00	-5.454829e-02
105.93	1.685027e+00	-5.288725e-02
105.94	1.684936e+00	-5.120875e-02
105.95	1.684853e+00	-4.953233e-02
105.96	1.684777e+00	-4.785313e-02
105.97	1.684711e+00	-4.615146e-02
105.98	1.684626e+00	-4.447416e-02
105.99	1.684537e+00	-4.278499e-02
106	1.684443e+00	-4.107540e-02
106.01	1.684358e+00	-3.937407e-02
106.02	1.684307e+00	-3.767611e-02
106.03	1.684183e+00	-3.596875e-02
106.04	1.684142e+00	-3.426101e-02
106.05	1.684051e+00	-3.255382e-02
106.06	1.683975e+00	-3.082578e-02
106.07	1.683914e+00	-2.909797e-02
106.08	1.683820e+00	-2.739032e-02
106.09	1.683731e+00	-2.567114e-02
106.1	1.683665e+00	-2.394634e-02
106.11	1.683617e+00	-2.221009e-02
106.12	1.683521e+00	-2.048286e-02
106.13	1.683447e+00	-1.874883e-02
106.14	1.683407e+00	-1.701101e-02
106.15	1.683327e+00	-1.526656e-02
106.16	1.683243e+00	-1.352989e-02
106.17	1.683166e+00	-1.178908e-02
106.18	1.683105e+00	-1.003790e-02
106.19	1.683041e+00	-8.297998e-03
106.2	1.682981e+00	-6.553460e-03
106.21	1.682908e+00	-4.806176e-03
106.22	1.682856e+00	-3.048158e-03
106.23	1.682791e+00	-1.305529e-03
106.24	1.682745e+00	4.331236e-04
106.25	1.682710e+00	2.189177e-03
106.26	1.682631e+00	3.929758e-03
106.27	1.682568e+00	5.692883e-03
106.28	1.682478e+00	7.453064e-03
106.29	1.682429e+00	9.199912e-03
106.3	1.682362e+00	1.096942e-02
106.31	1.682315e+00	1.271973e-02
106.32	1.682246e+00	1.448566e-02
106.33	1.682216e+00	1.622050e-02
106.34	1.682173e+00	1.797330e-02
106.35	1.682126e+00	1.972497e-02
106.36	1.682079e+00	2.147495e-02
106.37	1.682027e+00	2.322697e-02
106.38	1.681978e+00	2.497107e-02
106.39	1.681959e+00	2.673238e-02
106.4	1.681888e+00	2.848209e-02
106.41	1.681835e+00	3.023002e-02
106.42	1.681788e+00	3.197928e-02
106.43	1.681748e+00	3.371937e-02
106.44	1.681719e+00	3.547516e-02
106.45	1.681677e+00	3.722214e-02
106.46	1.681632e+00	3.894197e-02
106.47	1.681595e+00	4.069553e-02
106.48	1.681566e+00	4.242299e-02
106.49	1.681529e+00	4.415837e-02
106.5	1.681517e+00	4.587504e-02
106.51	1.681510e+00	4.760869e-02
106.52	1.681493e+00	4.934884e-02
106.53	1.681403e+00	5.109983e-02
106.54	1.681364e+00	5.280607e-02
106.55	1.681347e+00	5.451320e-02
106.56	1.681331e+00	5.622412e-02
106.57	1.681314e+00	5.793623e-02
106.58	1.681296e+00	5.965026e-02
106.59	1.681284e+00	6.135788e-02
106.6	1.681245e+00	6.306400e-02
106.61	1.681230e+00	6.475909e-02
106.62	1.681219e+00	6.646718e-02
106.63	1.681218e+00	6.815348e-02
106.64	1.681216e+00	6.985021e-02
106.65	1.681192e+00	7.152834e-02
106.66	1.681176e+00	7.321712e-02
106.67	1.681146e+00	7.488163e-02
106.68	1.681141e+00	7.655556e-02
106.69	1.681148e+00	7.822980e-02
106.7	1.681151e+00	7.988020e-02
106.71	1.681145e+00	8.153581e-02
106.72	1.681136e+00	8.319851e-02
106.73	1.681136e+00	8.485773e-02
106.74	1.681132e+00	8.648981e-02
106.75	1.681125e+00	8.812738e-02
106.76	1.681140e+00	8.977231e-02
106.77	1.681155e+00	9.135466e-02
106.78	1.681175e+00	9.300697e-02
106.79	1.681158e+00	9.466971e-02
106.8	1.681147e+00	9.625098e-02
106.81	1.681162e+00	9.784593e-02
106.82	1.681182e+00	9.944704e-02
106.83	1.681184e+00	1.010457e-01
106.84	1.681196e+00	1.026303e-01
106.85	1.681231e+00	1.042080e-01
106.86	1.681247e+00	1.057823e-01
106.87	1.681263e+00	1.073506e-01
106.88	1.681298e+00	1.089228e-01
106.89	1.681304e+00	1.104695e-01
106.9	1.681338e+00	1.119740e-01
106.91	1.681358e+00	1.135624e-01
106.92	1.681358e+00	1.151161e-01
106.93	1.681368e+00	1.166147e-01
106.94	1.681401e+00	1.181378e-01
106.95	1.681429e+00	1.196667e-01
106.96	1.681480e+00	1.211643e-01
106.97	1.681512e+00	1.226561e-01
106.98	1.681537e+00	1.241424e-01
106.99	1.681571e+00	1.256301e-01
107	1.681616e+00	1.271158e-01
107.01	1.681644e+00	1.285597e-01
107.02	1.681674e+00	1.300274e-01
107.03	1.681719e+00	1.314563e-01
107.04	1.681758e+00	1.329113e-01
107.05	1.681780e+00	1.343628e-01
107.06	1.681802e+00	1.357792e-01
107.07	1.681857e+00	1.372019e-01
107.08	1.681909e+00	1.386012e-01
107.09	1.681959e+00	1.399884e-01
107.1	1.681995e+00	1.413842e-01
107.11	1.682045e+00	1.427709e-01
107.12	1.682092e+00	1.441495e-01
107.13	1.682152e+00	1.455069e-01
107.14	1.682202e+00	1.468621e-01
107.15	1.682258e+00	1.481965e-01
107.16	1.682314e+00	1.495217e-01
107.17	1.682366e+00	1.508595e-01
107.18	1.682397e+00	1.521922e-01
107.19	1.682445e+00	1.534987e-01
107.2	1.682510e+00	1.547716e-01
107.21	1.682575e+00	1.560600e-01
107.22	1.682621e+00	1.573601e-01
107.23	1.682681e+00	1.586269e-01
107.24	1.682758e+00	1.598765e-01
107.25	1.682791e+00	1.611191e-01
107.26	1.682853e+00	1.623421e-01
107.27	1.682915e+00	1.635805e-01
107.28	1.682977e+00	1.647891e-01
107.29	1.683025e+00	1.659943e-01
107.3	1.683095e+00	1.671981e-01
107.31	1.683191e+00	1.683709e-01
107.32	1.683255e+00	1.695285e-01
107.33	1.683302e+00	1.707191e-01
107.34	1.683362e+00	1.718652e-01
107.35	1.683426e+00	1.730029e-01
107.36	1.683513e+00	1.741298e-01
107.37	1.683563e+00	1.752458e-01
107.38	1.683624e+00	1.763653e-01
107.39	1.683700e+00	1.774460e-01
107.4	1.683777e+00	1.785293e-01
107.41	1.683846e+00	1.795919e-01
107.42	1.683932e+00	1.806836e-01
107.43	1.683989e+00	1.817007e-01
107.44	1.684047e+00	1.827390e-01
107.45	1.684139e+00	1.837601e-01
107.46	1.684201e+00	1.847839e-01
107.47	1.684278e+00	1.857998e-01
107.48	1.684355e+00	1.867840e-01
107.49	1.684434e+00	1.877639e-01
107.5	1.684501e+00	1.887236e-01
107.51	1.684560e+00	1.896867e-01
107.52	1.684624e+00	1.906205e-01
107.53	1.684717e+00	1.915465e-01
107.54	1.684792e+00	1.924732e-01
107.55	1.684878e+00	1.933838e-01
107.56	1.684948e+00	1.942482e-01
107.57	1.685014e+00	1.951141e-01
107.58	1.685087e+00	1.959944e-01
107.59	1.685159e+00	1.968664e-01
107.6	1.685246e+00	1.976948e-01
107.61	1.685312e+00	1.985130e-01
107.62	1.685401e+00	1.993295e-01
107.63	1.685467e+00	2.001674e-01
107.64	1.685543e+00	2.009401e-01
107.65	1.685611e+00	2.017162e-01
107.66	1.685687e+00	2.024757e-01
107.67	1.685788e+00	2.032295e-01
107.68	1.685851e+00	2.039640e-01
107.69	1.685914e+00	2.046820e-01
107.7	1.685998e+00	2.053912e-01
107.71	1.686078e+00	2.060742e-01
107.72	1.686151e+00	2.067652e-01
107.73	1.686226e+00	2.074612e-01
107.74	1.686301e+00	2.080953e-01
107.75	1.686381e+00	2.087419e-01
107.76	1.686436e+00	2.093913e-01
107.77	1.686528e+00	2.099953e-01
107.78	1.686609e+00	2.106135e-01
107.79	1.686676e+00	2.112061e-01
107.8	1.686744e+00	2.117676e-01
107.81	1.686796e+00	2.123336e-01
107.82	1.686878e+00	2.128693e-01
107.83	1.686961e+00	2.134041e-01
107.84	1.687027e+00	2.139392e-01
107.85	1.687102e+00	2.144317e-01
107.86	1.687170e+00	2.149269e-01
107.87	1.687246e+00	2.154090e-01
107.88	1.687311e+00	2.158797e-01
107.89	1.687387e+00	2.163246e-01
107.9	1.687464e+00	2.167656e-01
107.91	1.687544e+00	2.172014e-01
107.92	1.687577e+00	2.176021e-01
107.93	1.687645e+00	2.180037e-01
107.94	1.687698e+00	2.183851e-01
107.95	1.687778e+00	2.187421e-01
107.96	1.687850e+00	2.190905e-01
107.97	1.687918e+00	2.194224e-01
107.98	1.687992e+00	2.197467e-01
107.99	1.688035e+00	2.200698e-01
108	1.688108e+00	2.203544e-01
108.01	1.688174e+00	2.206270e-01
108.02	1.688219e+00	2.209156e-01
108.03	1.688303e+00	2.211688e-01
108.04	1.688363e+00	2.213981e-01
108.05	1.688409e+00	2.216264e-01
108.06	1.688460e+00	2.218443e-01
108.07	1.688516e+00	2.220395e-01
108.08	1.688561e+00	2.222101e-01
108.09	1.688612e+00	2.223788e-01
108.1	1.688681e+00	2.225271e-01
108.11	1.688748e+00	2.226657e-01
108.12	1.688807e+00	2.227902e-01
108.13	1.688854e+00	2.229000e-01
108.14	1.688899e+00	2.230018e-01
108.15	1.688940e+00	2.230654e-01
108.16	1.688997e+00	2.231217e-01
108.17	1.689028e+00	2.231965e-01
108.18	1.689085e+00	2.232346e-01
108.19	1.689125e+00	2.232423e-01
108.2	1.689164e+00	2.232454e-01
108.21	1.689190e+00	2.232422e-01
108.22	1.689220e+00	2.232363e-01
108.23	1.689261e+00	2.231904e-01
108.24	1.689338e+00	2.231400e-01
108.25	1.689401e+00	2.230685e-01
108.26	1.689435e+00	2.229980e-01
108.27	1.689461e+00	2.229159e-01
108.28	1.689482e+00	2.228044e-01
108.29	1.689548e+00	2.226817e-01
108.3	1.689601e+00	2.225315e-01
108.31	1.689625e+00	2.223853e-01
108.32	1.689631e+00	2.222256e-01
108.33	1.689658e+00	2.220463e-01
108.34	1.689697e+00	2.218448e-01
108.35	1.689747e+00	2.216431e-01
108.36	1.689760e+00	2.214507e-01
108.37	1.689781e+00	2.212089e-01
108.38	1.689841e+00	2.209561e-01
108.39	1.689876e+00	2.206826e-01
108.4	1.689909e+00	2.204041e-01
108.41	1.689927e+00	2.201120e-01
108.42	1.689968e+00	2.198258e-01
108.43	1.689953e+00	2.194985e-01
108.44	1.689991e+00	2.191543e-01
108.45	1.690021e+00	2.187975e-01
108.46	1.690050e+00	2.184380e-01
108.47	1.690041e+00	2.180703e-01
108.48	1.690088e+00	2.176953e-01
108.49	1.690108e+00	2.172861e-01
108.5	1.690128e+00	2.168656e-01
108.51	1.690127e+00	2.164409e-01
108.52	1.690125e+00	2.159878e-01
108.53	1.690144e+00	2.155199e-01
108.54	1.690180e+00	2.150582e-01
108.55	1.690213e+00	2.145748e-01
108.56	1.690170e+00	2.140573e-01
108.57	1.690155e+00	2.135366e-01
108.58	1.690196e+00	2.130109e-01
108.59	1.690218e+00	2.124805e-01
108.6	1.690234e+00	2.119281e-01
108.61	1.690240e+00	2.113402e-01
108.62	1.690254e+00	2.107661e-01
108.63	1.690230e+00	2.101792e-01
108.64	1.690227e+00	2.095747e-01
108.65	1.690243e+00	2.089473e-01
108.66	1.690247e+00	2.083151e-01
108.67	1.690241e+00	2.076804e-01
108.68	1.690224e+00	2.069987e-01
108.69	1.690233e+00	2.063161e-01
108.7	1.690247e+00	2.056350e-01
108.71	1.690227e+00	2.049417e-01
108.72	1.690216e+00	2.042253e-01
108.73	1.690221e+00	2.034895e-01
108.74	1.690211e+00	2.027583e-01
108.75	1.690203e+00	2.019988e-01
108.76	1.690182e+00	2.012264e-01
108.77	1.690177e+00	2.004483e-01
108.78	1.690169e+00	1.996627e-01
108.79	1.690138e+00	1.988539e-01
108.8	1.690117e+00	1.980334e-01
108.81	1.690087e+00	1.972066e-01
108.82	1.690058e+00	1.963696e-01
108.83	1.690042e+00	1.955171e-01